                         Program Version 5.0.4 -  RELEASE  -
|  1> ! B3LYP EPR-II OPT FREQ
|  2> %pal nprocs 16 end
|  3> *XYZFile 0 2 model.xyz
|  4>
|  5>                          ****END OF INPUT****
 Total Charge           Charge          ....    0
 Multiplicity           Mult            ....    2
 Number of Electrons    NEL             ....  111
FINAL SINGLE POINT ENERGY      -583.773044120695
FINAL SINGLE POINT ENERGY      -583.774616194575
FINAL SINGLE POINT ENERGY      -583.774877198580
FINAL SINGLE POINT ENERGY      -583.774920517202
FINAL SINGLE POINT ENERGY      -583.774927896977
                    ***********************HURRAY********************

CARTESIAN COORDINATES (ANGSTROEM)
---------------------------------
  C      4.217986   -0.077102    0.001833
  C      2.842433   -0.000700    0.000102
  C      2.134509    1.265893   -0.003912
  C      0.741425    1.211180   -0.004447
  C      0.038816   -0.009531   -0.000835
  C      0.719313   -1.254383    0.003110
  C      2.110563   -1.250785    0.003098
  H      0.175474    2.137694   -0.007527
  H      2.671291   -2.178492    0.005697
  C      2.949152    2.549274   -0.007656
  H      3.614317    2.533511   -0.883599
  H      3.616694    2.536892    0.866563
  C      2.152619    3.863790   -0.009222
  H      1.497128    3.899790   -0.889467
  H      1.499460    3.903245    0.872612
  C      3.064384    5.104272   -0.012954
  H      3.723260    5.071826    0.864776
  H      3.720835    5.068297   -0.892363
  C      2.277643    6.426423   -0.014561
  H      1.636693    6.504683    0.870860
  H      1.633870    6.500818   -0.898265
  C     -0.101394   -2.539696    0.006900
  H     -0.764315   -2.516731    0.883026
  H     -0.765630   -2.521081   -0.868323
  C      0.682088   -3.861508    0.009620
  H      1.335825   -3.907442   -0.871541
  H      1.337453   -3.902901    0.889792
  C     -0.239075   -5.094831    0.013730
  H     -0.895542   -5.053587    0.893156
  H     -0.897343   -5.058134   -0.864552
  C      0.537228   -6.423231    0.016408
  H      1.180282   -6.501746    0.900175
  H      1.178077   -6.506636   -0.868513
  H      2.950775    7.289857   -0.017517
  H     -0.142355   -7.281637    0.019626
  H     -1.048721    0.001546   -0.001238

 Multiplicity           Mult            ....    2
 Number of Electrons    NEL             ....  111
 Basis Dimension        Dim             ....  402

ORBITAL ENERGIES
----------------
                 SPIN UP ORBITALS
  NO   OCC          E(Eh)            E(eV)
   0   1.0000     -10.251693      -278.9628
   1   1.0000     -10.221661      -278.1455
   2   1.0000     -10.211650      -277.8731
   3   1.0000     -10.210713      -277.8476
   4   1.0000     -10.209421      -277.8125
   5   1.0000     -10.200727      -277.5759
   6   1.0000     -10.200208      -277.5618
   7   1.0000     -10.193865      -277.3892
   8   1.0000     -10.193255      -277.3726
   9   1.0000     -10.185675      -277.1663
  10   1.0000     -10.185052      -277.1494
  11   1.0000     -10.184437      -277.1326
  12   1.0000     -10.183829      -277.1161
  13   1.0000     -10.173358      -276.8312
  14   1.0000     -10.173305      -276.8297
  15   1.0000      -0.870464       -23.6865
  16   1.0000      -0.815248       -22.1840
  17   1.0000      -0.795818       -21.6553
  18   1.0000      -0.780505       -21.2386
  19   1.0000      -0.766149       -20.8480
  20   1.0000      -0.732655       -19.9366
  21   1.0000      -0.702690       -19.1212
  22   1.0000      -0.664225       -18.0745
  23   1.0000      -0.654693       -17.8151
  24   1.0000      -0.622225       -16.9316
  25   1.0000      -0.597137       -16.2489
  26   1.0000      -0.582551       -15.8520
  27   1.0000      -0.567344       -15.4382
  28   1.0000      -0.531166       -14.4538
  29   1.0000      -0.486996       -13.2518
  30   1.0000      -0.475640       -12.9428
  31   1.0000      -0.474380       -12.9085
  32   1.0000      -0.470138       -12.7931
  33   1.0000      -0.438025       -11.9193
  34   1.0000      -0.427600       -11.6356
  35   1.0000      -0.425138       -11.5686
  36   1.0000      -0.422635       -11.5005
  37   1.0000      -0.422134       -11.4869
  38   1.0000      -0.413054       -11.2398
  39   1.0000      -0.392247       -10.6736
  40   1.0000      -0.379630       -10.3303
  41   1.0000      -0.369534       -10.0555
  42   1.0000      -0.367270        -9.9939
  43   1.0000      -0.362483        -9.8637
  44   1.0000      -0.360771        -9.8171
  45   1.0000      -0.346779        -9.4363
  46   1.0000      -0.334447        -9.1008
  47   1.0000      -0.332589        -9.0502
  48   1.0000      -0.328824        -8.9478
  49   1.0000      -0.327582        -8.9140
  50   1.0000      -0.327531        -8.9126
  51   1.0000      -0.320217        -8.7135
  52   1.0000      -0.294643        -8.0177
  53   1.0000      -0.289201        -7.8696
  54   1.0000      -0.254720        -6.9313
  55   1.0000      -0.180316        -4.9066
  56   0.0000      -0.104767        -2.8509
  57   0.0000      -0.010910        -0.2969
  58   0.0000       0.012921         0.3516
  59   0.0000       0.018657         0.5077
  60   0.0000       0.021181         0.5764

                 SPIN DOWN ORBITALS
  NO   OCC          E(Eh)            E(eV)
   0   1.0000     -10.242954      -278.7249
   1   1.0000     -10.217487      -278.0319
   2   1.0000     -10.213551      -277.9248
   3   1.0000     -10.211991      -277.8824
   4   1.0000     -10.206987      -277.7462
   5   1.0000     -10.202383      -277.6210
   6   1.0000     -10.195890      -277.4443
   7   1.0000     -10.194153      -277.3970
   8   1.0000     -10.193146      -277.3696
   9   1.0000     -10.185665      -277.1660
  10   1.0000     -10.185049      -277.1493
  11   1.0000     -10.184438      -277.1326
  12   1.0000     -10.183833      -277.1162
  13   1.0000     -10.173360      -276.8312
  14   1.0000     -10.173305      -276.8297
  15   1.0000      -0.866296       -23.5731
  16   1.0000      -0.813847       -22.1459
  17   1.0000      -0.795254       -21.6400
  18   1.0000      -0.776012       -21.1164
  19   1.0000      -0.763290       -20.7702
  20   1.0000      -0.732122       -19.9221
  21   1.0000      -0.701102       -19.0779
  22   1.0000      -0.654164       -17.8007
  23   1.0000      -0.651659       -17.7325
  24   1.0000      -0.620504       -16.8848
  25   1.0000      -0.595389       -16.2014
  26   1.0000      -0.582316       -15.8456
  27   1.0000      -0.566469       -15.4144
  28   1.0000      -0.526019       -14.3137
  29   1.0000      -0.482567       -13.1313
  30   1.0000      -0.475031       -12.9263
  31   1.0000      -0.474142       -12.9021
  32   1.0000      -0.468680       -12.7534
  33   1.0000      -0.436683       -11.8828
  34   1.0000      -0.425362       -11.5747
  35   1.0000      -0.424493       -11.5510
  36   1.0000      -0.422395       -11.4940
  37   1.0000      -0.421566       -11.4714
  38   1.0000      -0.412719       -11.2307
  39   1.0000      -0.390962       -10.6386
  40   1.0000      -0.373455       -10.1622
  41   1.0000      -0.368544       -10.0286
  42   1.0000      -0.367156        -9.9908
  43   1.0000      -0.361734        -9.8433
  44   1.0000      -0.358115        -9.7448
  45   1.0000      -0.341883        -9.3031
  46   1.0000      -0.334335        -9.0977
  47   1.0000      -0.331891        -9.0312
  48   1.0000      -0.328549        -8.9403
  49   1.0000      -0.327331        -8.9071
  50   1.0000      -0.327160        -8.9025
  51   1.0000      -0.319805        -8.7023
  52   1.0000      -0.277154        -7.5417
  53   1.0000      -0.271924        -7.3994
  54   1.0000      -0.243011        -6.6127
  55   0.0000      -0.093777        -2.5518
  56   0.0000      -0.086751        -2.3606
  57   0.0000      -0.002332        -0.0635
  58   0.0000       0.018836         0.5126
  59   0.0000       0.021184         0.5764

MULLIKEN ATOMIC CHARGES AND SPIN POPULATIONS
--------------------------------------------
   0 C :   -0.407918    0.580996
   1 C :    0.401818   -0.126209
   2 C :    0.266732    0.263847
   3 C :   -0.230046   -0.135099
   4 C :   -0.321233    0.328304
   5 C :    0.488858   -0.124995
   6 C :   -0.419429    0.240343
   7 H :    0.118615    0.005959
   8 H :    0.129250   -0.012643
   9 C :   -0.355551   -0.022482
  10 H :    0.155399    0.010847
  11 H :    0.155684    0.010766
  12 C :   -0.277726    0.001303
  13 H :    0.142931   -0.000218
  14 H :    0.143149   -0.000232
  15 C :   -0.262507   -0.000003
  16 H :    0.145879    0.000036
  17 H :    0.145840    0.000031
  18 C :   -0.510403   -0.000080
  19 H :    0.159427    0.000026
  20 H :    0.159394    0.000027
  21 C :   -0.387630    0.007013
  22 H :    0.151331   -0.004299
  23 H :    0.151273   -0.004262
  24 C :   -0.266523   -0.000289
  25 H :    0.144220   -0.000034
  26 H :    0.144102   -0.000043
  27 C :   -0.264515   -0.000001
  28 H :    0.143532    0.000090
  29 H :    0.143535    0.000088
  30 C :   -0.508895    0.000021
  31 H :    0.160353   -0.000005
  32 H :    0.160376   -0.000005
  33 H :    0.146632   -0.000005
  34 H :    0.145493   -0.000004
  35 H :    0.108550   -0.018790
Sum of atomic charges         :   -0.0000000

LOEWDIN ATOMIC CHARGES AND SPIN POPULATIONS
-------------------------------------------
   0 C :    0.042095    0.547182
   1 C :   -0.172833   -0.074812
   2 C :   -0.047839    0.211954
   3 C :   -0.037702   -0.077188
   4 C :   -0.039855    0.257995
   5 C :   -0.066630   -0.075012
   6 C :   -0.016358    0.199307
   7 H :    0.055239   -0.000853
   8 H :    0.057749    0.001015
   9 C :   -0.049714   -0.001390
  10 H :    0.058634    0.008056
  11 H :    0.058928    0.007922
  12 C :   -0.078816    0.000200
  13 H :    0.044607   -0.000099
  14 H :    0.044663   -0.000105
  15 C :   -0.088798   -0.000062
  16 H :    0.041504    0.000064
  17 H :    0.041494    0.000064
  18 C :   -0.078063   -0.000043
  19 H :    0.033898    0.000013
  20 H :    0.033893    0.000012
  21 C :   -0.054724   -0.000105
  22 H :    0.055181   -0.003352
  23 H :    0.055168   -0.003323
  24 C :   -0.079284    0.000183
  25 H :    0.045128    0.000184
  26 H :    0.045095    0.000182
  27 C :   -0.090251   -0.000001
  28 H :    0.040718    0.000014
  29 H :    0.040718    0.000015
  30 C :   -0.077591    0.000009
  31 H :    0.034303   -0.000005
  32 H :    0.034305   -0.000005
  33 H :    0.032108   -0.000006
  34 H :    0.031729   -0.000001
  35 H :    0.051302    0.001990

  Mayer bond orders larger than 0.100000
B(  0-C ,  1-C ) :   1.1382 B(  0-C ,  6-C ) :   0.1359 B(  1-C ,  2-C ) :   1.2515
B(  1-C ,  3-C ) :   0.1212 B(  1-C ,  5-C ) :   0.1062 B(  1-C ,  6-C ) :   1.1911
B(  2-C ,  3-C ) :   1.4925 B(  2-C ,  4-C ) :   0.1302 B(  2-C ,  9-C ) :   0.9517
B(  3-C ,  4-C ) :   1.4221 B(  3-C ,  7-H ) :   0.9774 B(  4-C ,  5-C ) :   1.3165
B(  4-C ,  6-C ) :   0.1248 B(  4-C , 35-H ) :   0.9776 B(  5-C ,  6-C ) :   1.5398
B(  5-C , 21-C ) :   0.9062 B(  6-C ,  8-H ) :   0.9717 B(  9-C , 10-H ) :   0.9558
B(  9-C , 11-H ) :   0.9556 B(  9-C , 12-C ) :   1.0180 B( 12-C , 13-H ) :   0.9639
B( 12-C , 14-H ) :   0.9641 B( 12-C , 15-C ) :   0.9884 B( 15-C , 16-H ) :   0.9714
B( 15-C , 17-H ) :   0.9715 B( 15-C , 18-C ) :   0.9559 B( 18-C , 19-H ) :   0.9723
B( 18-C , 20-H ) :   0.9724 B( 18-C , 33-H ) :   0.9680 B( 21-C , 22-H ) :   0.9657
B( 21-C , 23-H ) :   0.9657 B( 21-C , 24-C ) :   1.0186 B( 24-C , 25-H ) :   0.9626
B( 24-C , 26-H ) :   0.9625 B( 24-C , 27-C ) :   0.9842 B( 27-C , 28-H ) :   0.9725
B( 27-C , 29-H ) :   0.9725 B( 27-C , 30-C ) :   0.9575 B( 30-C , 31-H ) :   0.9716
B( 30-C , 32-H ) :   0.9716 B( 30-C , 34-H ) :   0.9684

FINAL SINGLE POINT ENERGY      -583.774928794869

DIPOLE MOMENT
-------------
                                X             Y             Z
Electronic contribution:      4.34462      -0.01316      -0.00266
Nuclear contribution   :     -5.47482       0.12348       0.00141
                        -----------------------------------------
Total Dipole Moment    :     -1.13021       0.11032      -0.00125
                        -----------------------------------------
Magnitude (a.u.)       :      1.13558
Magnitude (Debye)      :      2.88641

VIBRATIONAL FREQUENCIES
-----------------------

Scaling factor for frequencies =  1.000000000  (already applied!)

   0:         0.00 cm**-1
   1:         0.00 cm**-1
   2:         0.00 cm**-1
   3:         0.00 cm**-1
   4:         0.00 cm**-1
   5:         0.00 cm**-1
   6:      -586.65 cm**-1 ***imaginary mode***
   7:        12.49 cm**-1
   8:        45.85 cm**-1
   9:        59.38 cm**-1
  10:        61.22 cm**-1
  11:        83.68 cm**-1
  12:       100.32 cm**-1
  13:       109.87 cm**-1
  14:       120.01 cm**-1
  15:       137.98 cm**-1
  16:       199.09 cm**-1
  17:       224.92 cm**-1
  18:       226.04 cm**-1
  19:       237.07 cm**-1
  20:       240.86 cm**-1
  21:       283.01 cm**-1
  22:       314.62 cm**-1
  23:       318.04 cm**-1
  24:       345.83 cm**-1
  25:       439.17 cm**-1
  26:       466.58 cm**-1
  27:       491.35 cm**-1
  28:       514.92 cm**-1
  29:       589.96 cm**-1
  30:       674.63 cm**-1
  31:       728.42 cm**-1
  32:       734.05 cm**-1
  33:       735.87 cm**-1
  34:       766.70 cm**-1
  35:       780.52 cm**-1
  36:       785.80 cm**-1
  37:       826.67 cm**-1
  38:       850.10 cm**-1
  39:       904.46 cm**-1
  40:       907.48 cm**-1
  41:       931.63 cm**-1
  42:       945.51 cm**-1
  43:       961.62 cm**-1
  44:       964.67 cm**-1
  45:      1014.40 cm**-1
  46:      1026.21 cm**-1
  47:      1059.80 cm**-1
  48:      1068.51 cm**-1
  49:      1070.62 cm**-1
  50:      1089.65 cm**-1
  51:      1115.10 cm**-1
  52:      1123.12 cm**-1
  53:      1130.08 cm**-1
  54:      1168.40 cm**-1
  55:      1187.15 cm**-1
  56:      1208.90 cm**-1
  57:      1239.33 cm**-1
  58:      1245.03 cm**-1
  59:      1264.69 cm**-1
  60:      1276.41 cm**-1
  61:      1285.08 cm**-1
  62:      1314.00 cm**-1
  63:      1315.11 cm**-1
  64:      1320.95 cm**-1
  65:      1328.05 cm**-1
  66:      1330.23 cm**-1
  67:      1366.76 cm**-1
  68:      1370.81 cm**-1
  69:      1388.81 cm**-1
  70:      1398.65 cm**-1
  71:      1409.19 cm**-1
  72:      1411.04 cm**-1
  73:      1413.94 cm**-1
  74:      1447.44 cm**-1
  75:      1477.05 cm**-1
  76:      1478.87 cm**-1
  77:      1490.52 cm**-1
  78:      1490.61 cm**-1
  79:      1502.23 cm**-1
  80:      1502.62 cm**-1
  81:      1505.66 cm**-1
  82:      1505.73 cm**-1
  83:      1515.92 cm**-1
  84:      1516.10 cm**-1
  85:      1552.60 cm**-1
  86:      1592.02 cm**-1
  87:      2991.64 cm**-1
  88:      3000.70 cm**-1
  89:      3001.96 cm**-1
  90:      3005.09 cm**-1
  91:      3006.03 cm**-1
  92:      3014.20 cm**-1
  93:      3014.68 cm**-1
  94:      3020.31 cm**-1
  95:      3020.81 cm**-1
  96:      3028.20 cm**-1
  97:      3036.36 cm**-1
  98:      3037.07 cm**-1
  99:      3059.87 cm**-1
 100:      3061.60 cm**-1
 101:      3089.15 cm**-1
 102:      3089.91 cm**-1
 103:      3093.65 cm**-1
 104:      3093.68 cm**-1
 105:      3164.42 cm**-1
 106:      3191.37 cm**-1
 107:      3202.92 cm**-1

IR SPECTRUM
-----------

 Mode   freq       eps      Int      T**2         TX        TY        TZ
       cm**-1   L/(mol*cm) km/mol    a.u.
----------------------------------------------------------------------------
  7:     12.49   0.000004    0.02  0.000109  ( 0.000087  0.000046  0.010434)
  8:     45.85   0.000002    0.01  0.000016  ( 0.003836 -0.000682  0.001108)
  9:     59.38   0.000015    0.07  0.000077  (-0.008578  0.000149  0.001799)
 10:     61.22   0.000083    0.42  0.000422  ( 0.001726 -0.000374 -0.020474)
 11:     83.68   0.000015    0.08  0.000058  (-0.000734 -0.000027  0.007550)
 12:    100.32   0.000121    0.61  0.000376  (-0.000909 -0.019381  0.000084)
 13:    109.87   0.000010    0.05  0.000027  ( 0.000155  0.000021  0.005203)
 14:    120.01   0.000061    0.31  0.000159  (-0.002375  0.000537 -0.012359)
 15:    137.98   0.000277    1.40  0.000626  (-0.003003 -0.000001  0.024833)
 16:    199.09   0.001330    6.72  0.002084  (-0.000911  0.045643 -0.000381)
 17:    224.92   0.000053    0.27  0.000074  (-0.006032  0.006113  0.000046)
 18:    226.04   0.000021    0.11  0.000029  (-0.002520 -0.004740  0.000062)
 19:    237.07   0.000002    0.01  0.000002  (-0.001440 -0.000161 -0.000579)
 20:    240.86   0.000002    0.01  0.000003  ( 0.001067  0.000021 -0.001200)
 21:    283.01   0.000091    0.46  0.000101  ( 0.006941  0.000829  0.007204)
 22:    314.62   0.000190    0.96  0.000188  (-0.007806 -0.006238 -0.009406)
 23:    318.04   0.000281    1.42  0.000276  ( 0.005608 -0.014936  0.004603)
 24:    345.83   0.000238    1.20  0.000214  ( 0.000471  0.014635 -0.000283)
 25:    439.17   0.000183    0.93  0.000130  (-0.004669  0.010401  0.000295)
 26:    466.58   0.000170    0.86  0.000114  ( 0.000444 -0.010645  0.000522)
 27:    491.35   0.000422    2.13  0.000268  (-0.006491 -0.000438 -0.015016)
 28:    514.92   0.000014    0.07  0.000009  (-0.002363  0.000630  0.001631)
 29:    589.96   0.000011    0.06  0.000006  ( 0.000515 -0.002266 -0.000764)
 30:    674.63   0.000007    0.03  0.000003  (-0.001234  0.000262 -0.001199)
 31:    728.42   0.000190    0.96  0.000082  ( 0.003129 -0.000055 -0.008470)
 32:    734.05   0.000101    0.51  0.000043  (-0.002949  0.001449 -0.005669)
 33:    735.87   0.000590    2.98  0.000250  ( 0.001000  0.000383  0.015775)
 34:    766.70   0.002791   14.11  0.001136  (-0.002325 -0.000371 -0.033625)
 35:    780.52   0.000052    0.26  0.000021  ( 0.001292  0.003654  0.002367)
 36:    785.80   0.000330    1.67  0.000131  (-0.003164 -0.000380  0.010999)
 37:    826.67   0.003220   16.27  0.001215  (-0.001411  0.000273  0.034833)
 38:    850.10   0.000697    3.52  0.000256  ( 0.003694  0.000282  0.015555)
 39:    904.46   0.001042    5.27  0.000360  ( 0.008749  0.016820  0.000284)
 40:    907.48   0.000193    0.98  0.000066  (-0.003167 -0.007501  0.000249)
 41:    931.63   0.000024    0.12  0.000008  (-0.000567 -0.000178  0.002776)
 42:    945.51   0.001209    6.11  0.000399  ( 0.001816  0.000778 -0.019878)
 43:    961.62   0.000822    4.15  0.000267  (-0.007635 -0.010151  0.010261)
 44:    964.67   0.001271    6.42  0.000411  (-0.007507 -0.018103 -0.005207)
 45:   1014.40   0.000118    0.60  0.000036  (-0.004540  0.003905 -0.000724)
 46:   1026.21   0.000100    0.51  0.000030  ( 0.005519  0.000092 -0.000021)
 47:   1059.80   0.000025    0.13  0.000007  (-0.000096 -0.002039  0.001794)
 48:   1068.51   0.000001    0.01  0.000000  (-0.000290  0.000103  0.000454)
 49:   1070.62   0.000464    2.34  0.000135  (-0.010371  0.001638  0.005000)
 50:   1089.65   0.001045    5.28  0.000299  ( 0.017278 -0.000680 -0.000446)
 51:   1115.10   0.000182    0.92  0.000051  (-0.003839 -0.006012  0.000056)
 52:   1123.12   0.000030    0.15  0.000008  (-0.000478 -0.000136  0.002835)
 53:   1130.08   0.000510    2.58  0.000141  (-0.001982  0.011696 -0.000123)
 54:   1168.40   0.000074    0.38  0.000020  ( 0.004423 -0.000473 -0.000211)
 55:   1187.15   0.000574    2.90  0.000151  (-0.006120 -0.010633  0.000676)
 56:   1208.90   0.000187    0.95  0.000048  ( 0.005025 -0.003933 -0.002763)
 57:   1239.33   0.000012    0.06  0.000003  ( 0.000049  0.000046  0.001703)
 58:   1245.03   0.003823   19.32  0.000958  (-0.023982 -0.019570 -0.000132)
 59:   1264.69   0.000727    3.67  0.000179  ( 0.012843  0.003791  0.000158)
 60:   1276.41   0.000419    2.12  0.000102  ( 0.003503  0.009490 -0.000011)
 61:   1285.08   0.000199    1.01  0.000048  ( 0.006506  0.000775 -0.002342)
 62:   1314.00   0.000067    0.34  0.000016  (-0.000864  0.000111 -0.003885)
 63:   1315.11   0.001664    8.41  0.000395  ( 0.019816 -0.001447 -0.000246)
 64:   1320.95   0.000138    0.70  0.000033  (-0.005626  0.001006  0.000130)
 65:   1328.05   0.000093    0.47  0.000022  (-0.001697  0.000081 -0.004359)
 66:   1330.23   0.000060    0.30  0.000014  (-0.000101 -0.000007 -0.003758)
 67:   1366.76   0.000285    1.44  0.000065  (-0.007289 -0.003464 -0.000137)
 68:   1370.81   0.000219    1.11  0.000050  ( 0.006949 -0.001247  0.000166)
 69:   1388.81   0.001329    6.72  0.000299  (-0.014489  0.009416 -0.000265)
 70:   1398.65   0.001122    5.67  0.000250  (-0.002677 -0.015591 -0.000046)
 71:   1409.19   0.002352   11.89  0.000521  ( 0.000285 -0.022822 -0.000076)
 72:   1411.04   0.000708    3.58  0.000157  (-0.011582  0.004739 -0.000005)
 73:   1413.94   0.001833    9.26  0.000405  ( 0.017292  0.010274  0.000078)
 74:   1447.44   0.001514    7.65  0.000326  ( 0.013247  0.012284 -0.000172)
 75:   1477.05   0.000024    0.12  0.000005  ( 0.001667  0.001478 -0.000035)
 76:   1478.87   0.001161    5.87  0.000245  (-0.015493 -0.002207 -0.000008)
 77:   1490.52   0.000565    2.85  0.000118  (-0.001104  0.010818 -0.000024)
 78:   1490.61   0.000013    0.07  0.000003  ( 0.000222 -0.001633  0.000007)
 79:   1502.23   0.000012    0.06  0.000002  (-0.001187  0.001043 -0.000014)
 80:   1502.62   0.000140    0.71  0.000029  (-0.002081  0.004967 -0.000042)
 81:   1505.66   0.001916    9.68  0.000397  (-0.000032 -0.000050 -0.019929)
 82:   1505.73   0.001950    9.86  0.000404  (-0.000114  0.000042  0.020105)
 83:   1515.92   0.001151    5.82  0.000237  ( 0.014258  0.005801 -0.000031)
 84:   1516.10   0.003597   18.18  0.000740  ( 0.025638  0.009110 -0.000029)
 85:   1552.60   0.002794   14.12  0.000562  ( 0.008661  0.022058 -0.000034)
 86:   1592.02   0.000584    2.95  0.000115  (-0.003656 -0.010057  0.000079)
 87:   2991.64   0.000845    4.27  0.000088  (-0.009320  0.000300  0.001070)
 88:   3000.70   0.001768    8.94  0.000184  (-0.008243  0.000249 -0.010766)
 89:   3001.96   0.000577    2.92  0.000060  (-0.007734  0.000457  0.000000)
 90:   3005.09   0.000128    0.65  0.000013  ( 0.001329 -0.003397 -0.000032)
 91:   3006.03   0.000156    0.79  0.000016  ( 0.003039  0.002618  0.000379)
 92:   3014.20   0.011502   58.13  0.001191  (-0.034223 -0.004428  0.000042)
 93:   3014.68   0.009140   46.19  0.000946  ( 0.030523  0.003800  0.000082)
 94:   3020.31   0.008124   41.06  0.000839  ( 0.019279 -0.021627  0.000042)
 95:   3020.81   0.006848   34.61  0.000707  (-0.016295  0.021021 -0.000035)
 96:   3028.20   0.000621    3.14  0.000064  ( 0.000064 -0.000001 -0.008002)
 97:   3036.36   0.000016    0.08  0.000002  (-0.001269  0.000021  0.000292)
 98:   3037.07   0.000003    0.01  0.000000  (-0.000028  0.000013  0.000538)
 99:   3059.87   0.005739   29.00  0.000585  (-0.001766 -0.000019 -0.024129)
100:   3061.60   0.008985   45.41  0.000916  (-0.000060 -0.000091 -0.030263)
101:   3089.15   0.011741   59.33  0.001186  (-0.000377 -0.000079 -0.034437)
102:   3089.91   0.012746   64.41  0.001287  (-0.000060 -0.000110 -0.035878)
103:   3093.65   0.015270   77.17  0.001540  (-0.030571 -0.024610  0.000116)
104:   3093.68   0.000945    4.78  0.000095  (-0.007405 -0.006363  0.000025)
105:   3164.42   0.002276   11.50  0.000224  ( 0.013481  0.006533  0.000052)
106:   3191.37   0.003130   15.82  0.000306  ( 0.011174 -0.013460  0.000049)
107:   3202.92   0.000589    2.97  0.000057  ( 0.000576  0.007551  0.000051)

--------------------------
THERMOCHEMISTRY AT 298.15K
--------------------------

Temperature         ... 298.15 K
Pressure            ... 1.00 atm
Total Mass          ... 201.33 AMU

Throughout the following assumptions are being made:
  (1) The electronic state is orbitally nondegenerate
      but the spin degeneracy is treated
  (2) There are no thermally accessible electronically excited states
  (3) Hindered rotations indicated by low frequency modes are not
      treated as such but are treated as vibrations and this may
      cause some error
  (4) All equations used are the standard statistical mechanics
      equations for an ideal gas
  (5) All vibrations are strictly harmonic

freq.      12.49  E(vib)   ...       0.57
freq.      45.85  E(vib)   ...       0.53
freq.      59.38  E(vib)   ...       0.51
freq.      61.22  E(vib)   ...       0.51
freq.      83.68  E(vib)   ...       0.48
freq.     100.32  E(vib)   ...       0.46
freq.     109.87  E(vib)   ...       0.45
freq.     120.01  E(vib)   ...       0.44
freq.     137.98  E(vib)   ...       0.42
freq.     199.09  E(vib)   ...       0.35
freq.     224.92  E(vib)   ...       0.33
freq.     226.04  E(vib)   ...       0.33
freq.     237.07  E(vib)   ...       0.32
freq.     240.86  E(vib)   ...       0.31
freq.     283.01  E(vib)   ...       0.28
freq.     314.62  E(vib)   ...       0.25
freq.     318.04  E(vib)   ...       0.25
freq.     345.83  E(vib)   ...       0.23
freq.     439.17  E(vib)   ...       0.17
freq.     466.58  E(vib)   ...       0.16
freq.     491.35  E(vib)   ...       0.14
freq.     514.92  E(vib)   ...       0.13
freq.     589.96  E(vib)   ...       0.10
freq.     674.63  E(vib)   ...       0.08
freq.     728.42  E(vib)   ...       0.06
freq.     734.05  E(vib)   ...       0.06
freq.     735.87  E(vib)   ...       0.06
freq.     766.70  E(vib)   ...       0.06
freq.     780.52  E(vib)   ...       0.05
freq.     785.80  E(vib)   ...       0.05
freq.     826.67  E(vib)   ...       0.04
freq.     850.10  E(vib)   ...       0.04
freq.     904.46  E(vib)   ...       0.03
freq.     907.48  E(vib)   ...       0.03
freq.     931.63  E(vib)   ...       0.03
freq.     945.51  E(vib)   ...       0.03
freq.     961.62  E(vib)   ...       0.03
freq.     964.67  E(vib)   ...       0.03
freq.    1014.40  E(vib)   ...       0.02
freq.    1026.21  E(vib)   ...       0.02
freq.    1059.80  E(vib)   ...       0.02
freq.    1068.51  E(vib)   ...       0.02
freq.    1070.62  E(vib)   ...       0.02
freq.    1089.65  E(vib)   ...       0.02
freq.    1115.10  E(vib)   ...       0.01
freq.    1123.12  E(vib)   ...       0.01
freq.    1130.08  E(vib)   ...       0.01
freq.    1168.40  E(vib)   ...       0.01
freq.    1187.15  E(vib)   ...       0.01
freq.    1208.90  E(vib)   ...       0.01
freq.    1239.33  E(vib)   ...       0.01
freq.    1245.03  E(vib)   ...       0.01
freq.    1264.69  E(vib)   ...       0.01
freq.    1276.41  E(vib)   ...       0.01
freq.    1285.08  E(vib)   ...       0.01
freq.    1314.00  E(vib)   ...       0.01
freq.    1315.11  E(vib)   ...       0.01
freq.    1320.95  E(vib)   ...       0.01
freq.    1328.05  E(vib)   ...       0.01
freq.    1330.23  E(vib)   ...       0.01
freq.    1366.76  E(vib)   ...       0.01
freq.    1370.81  E(vib)   ...       0.01
freq.    1388.81  E(vib)   ...       0.00
freq.    1398.65  E(vib)   ...       0.00
freq.    1409.19  E(vib)   ...       0.00
freq.    1411.04  E(vib)   ...       0.00
freq.    1413.94  E(vib)   ...       0.00
freq.    1447.44  E(vib)   ...       0.00
freq.    1477.05  E(vib)   ...       0.00
freq.    1478.87  E(vib)   ...       0.00
freq.    1490.52  E(vib)   ...       0.00
freq.    1490.61  E(vib)   ...       0.00
freq.    1502.23  E(vib)   ...       0.00
freq.    1502.62  E(vib)   ...       0.00
freq.    1505.66  E(vib)   ...       0.00
freq.    1505.73  E(vib)   ...       0.00
freq.    1515.92  E(vib)   ...       0.00
freq.    1516.10  E(vib)   ...       0.00
freq.    1552.60  E(vib)   ...       0.00
freq.    1592.02  E(vib)   ...       0.00
freq.    2991.64  E(vib)   ...       0.00
freq.    3000.70  E(vib)   ...       0.00
freq.    3001.96  E(vib)   ...       0.00
freq.    3005.09  E(vib)   ...       0.00
freq.    3006.03  E(vib)   ...       0.00
freq.    3014.20  E(vib)   ...       0.00
freq.    3014.68  E(vib)   ...       0.00
freq.    3020.31  E(vib)   ...       0.00
freq.    3020.81  E(vib)   ...       0.00
freq.    3028.20  E(vib)   ...       0.00
freq.    3036.36  E(vib)   ...       0.00
freq.    3037.07  E(vib)   ...       0.00
freq.    3059.87  E(vib)   ...       0.00
freq.    3061.60  E(vib)   ...       0.00
freq.    3089.15  E(vib)   ...       0.00
freq.    3089.91  E(vib)   ...       0.00
freq.    3093.65  E(vib)   ...       0.00
freq.    3093.68  E(vib)   ...       0.00
freq.    3164.42  E(vib)   ...       0.00
freq.    3191.37  E(vib)   ...       0.00
freq.    3202.92  E(vib)   ...       0.00

------------
INNER ENERGY
------------

The inner energy is: U= E(el) + E(ZPE) + E(vib) + E(rot) + E(trans)
    E(el)   - is the total energy from the electronic structure calculation
              = E(kin-el) + E(nuc-el) + E(el-el) + E(nuc-nuc)
    E(ZPE)  - the the zero temperature vibrational energy from the frequency calculation
    E(vib)  - the the finite temperature correction to E(ZPE) due to population
              of excited vibrational states
    E(rot)  - is the rotational thermal energy
    E(trans)- is the translational thermal energy

Summary of contributions to the inner energy U:
Electronic energy                ...   -583.77492879 Eh
Zero point energy                ...      0.31407128 Eh     197.08 kcal/mol
Thermal vibrational correction   ...      0.01394884 Eh       8.75 kcal/mol
Thermal rotational correction    ...      0.00141627 Eh       0.89 kcal/mol
Thermal translational correction ...      0.00141627 Eh       0.89 kcal/mol
-----------------------------------------------------------------------
Total thermal energy                   -583.44407613 Eh

Summary of corrections to the electronic energy:
(perhaps to be used in another calculation)
Total thermal correction                  0.01678138 Eh      10.53 kcal/mol
Non-thermal (ZPE) correction              0.31407128 Eh     197.08 kcal/mol
-----------------------------------------------------------------------
Total correction                          0.33085266 Eh     207.61 kcal/mol

--------
ENTHALPY
--------

The enthalpy is H = U + kB*T
                kB is Boltzmann's constant
Total free energy                 ...   -583.44407613 Eh
Thermal Enthalpy correction       ...      0.00094421 Eh       0.59 kcal/mol
-----------------------------------------------------------------------
Total Enthalpy                    ...   -583.44313192 Eh

Rotational constants in cm-1:     0.070899     0.005942     0.005527

                             ****ORCA TERMINATED NORMALLY****
TOTAL RUN TIME: 0 days 0 hours 19 minutes 24 seconds 812 msec
