                         Program Version 5.0.4 -  RELEASE  -
|  1> ! B3LYP EPR-II FREQ
|  2> %pal nprocs 16 end
|  3> *XYZFile 0 2 opt.xyz
|  4>
|  5>                          ****END OF INPUT****

CARTESIAN COORDINATES (ANGSTROEM)
---------------------------------
  C      2.831806   -0.006236   -0.008272
  C     -1.314139   -0.014773   -0.012929
  C     -0.703841   -1.259958   -0.014279
  C      0.699293   -1.203568   -0.012429
  C      1.402358    0.023007   -0.009542
  C      0.708612    1.263431   -0.008102
  C     -0.699666    1.217589   -0.009942
  H      1.283513   -2.125515   -0.013363
  H     -1.285093    2.138713   -0.009038
  C     -1.509688   -2.548043   -0.017242
  H     -2.182378   -2.530206   -0.894243
  H     -2.180594   -2.535322    0.861245
  C     -0.708611   -3.852555   -0.021718
  H     -0.045377   -3.880501   -0.905977
  H     -0.045441   -3.886600    0.862377
  C     -1.603186   -5.097748   -0.025923
  H     -2.269586   -5.070311    0.856270
  H     -2.268554   -5.065066   -0.908715
  C     -0.811642   -6.407882   -0.029365
  H     -0.163127   -6.486668    0.860305
  H     -0.161649   -6.481086   -0.918435
  C      1.483960    2.566701   -0.004836
  H      2.159953    2.562804    0.870276
  H      2.160515    2.566853   -0.879537
  C      0.662999    3.858831   -0.002137
  H      0.000591    3.884733   -0.887173
  H     -0.000881    3.880108    0.881917
  C      1.540854    5.116159    0.001806
  H      2.206133    5.092323    0.884894
  H      2.207958    5.096581   -0.880007
  C      0.732381    6.415841    0.004122
  H      0.081081    6.481192    0.892854
  H      0.083265    6.485731   -0.885860
  C      4.053310   -0.041189   -0.009378
  H     -1.480462   -7.283854   -0.032687
  H      1.389551    7.300598    0.007195
  C      5.481187   -0.085650   -0.008586
  C      6.162322   -1.322563   -0.012255
  C      7.556386   -1.361278   -0.011394
  C      8.297343   -0.174069   -0.006934
  C      7.632552    1.057518   -0.003328
  C      6.238850    1.105969   -0.004137
  H      9.389310   -0.208771   -0.006270
  H      8.204901    1.988374    0.000175
  H      5.582883   -2.247731   -0.015759
  H      5.718665    2.065740   -0.001296
  H      8.069533   -2.326054   -0.014261

 Total Charge           Charge          ....    0
 Multiplicity           Mult            ....    2
 Number of Electrons    NEL             ....  157
 Basis Dimension        Dim             ....  549

ORBITAL ENERGIES
----------------
                 SPIN UP ORBITALS
  NO   OCC          E(Eh)            E(eV)
   0   1.0000     -10.225081      -278.2386
   1   1.0000     -10.216619      -278.0083
   2   1.0000     -10.213536      -277.9244
   3   1.0000     -10.212691      -277.9015
   4   1.0000     -10.209370      -277.8111
   5   1.0000     -10.202946      -277.6363
   6   1.0000     -10.202802      -277.6324
   7   1.0000     -10.202604      -277.6270
   8   1.0000     -10.202105      -277.6134
   9   1.0000     -10.201884      -277.6074
  10   1.0000     -10.201015      -277.5837
  11   1.0000     -10.198828      -277.5242
  12   1.0000     -10.198494      -277.5151
  13   1.0000     -10.196186      -277.4523
  14   1.0000     -10.190920      -277.3090
  15   1.0000     -10.187879      -277.2263
  16   1.0000     -10.183363      -277.1034
  17   1.0000     -10.183118      -277.0967
  18   1.0000     -10.183072      -277.0955
  19   1.0000     -10.182855      -277.0896
  20   1.0000     -10.173754      -276.8419
  21   1.0000     -10.173684      -276.8400
  22   1.0000      -0.870120       -23.6772
  23   1.0000      -0.860949       -23.4276
  24   1.0000      -0.812171       -22.1003
  25   1.0000      -0.793864       -21.6021
  26   1.0000      -0.786859       -21.4115
  27   1.0000      -0.768776       -20.9195
  28   1.0000      -0.759900       -20.6779
  29   1.0000      -0.749117       -20.3845
  30   1.0000      -0.730469       -19.8771
  31   1.0000      -0.712847       -19.3976
  32   1.0000      -0.697009       -18.9666
  33   1.0000      -0.651460       -17.7271
  34   1.0000      -0.630706       -17.1624
  35   1.0000      -0.616870       -16.7859
  36   1.0000      -0.607568       -16.5328
  37   1.0000      -0.605564       -16.4782
  38   1.0000      -0.581495       -15.8233
  39   1.0000      -0.576269       -15.6811
  40   1.0000      -0.562813       -15.3149
  41   1.0000      -0.535892       -14.5824
  42   1.0000      -0.506466       -13.7817
  43   1.0000      -0.479143       -13.0382
  44   1.0000      -0.470973       -12.8158
  45   1.0000      -0.470853       -12.8126
  46   1.0000      -0.469942       -12.7878
  47   1.0000      -0.454858       -12.3773
  48   1.0000      -0.441357       -12.0099
  49   1.0000      -0.435964       -11.8632
  50   1.0000      -0.426760       -11.6127
  51   1.0000      -0.423339       -11.5196
  52   1.0000      -0.422680       -11.5017
  53   1.0000      -0.422267       -11.4905
  54   1.0000      -0.416931       -11.3453
  55   1.0000      -0.412986       -11.2379
  56   1.0000      -0.411274       -11.1913
  57   1.0000      -0.381005       -10.3677
  58   1.0000      -0.377514       -10.2727
  59   1.0000      -0.372399       -10.1335
  60   1.0000      -0.365113        -9.9352
  61   1.0000      -0.363721        -9.8973
  62   1.0000      -0.359319        -9.7776
  63   1.0000      -0.356822        -9.7096
  64   1.0000      -0.349686        -9.5154
  65   1.0000      -0.341131        -9.2826
  66   1.0000      -0.332727        -9.0540
  67   1.0000      -0.330960        -9.0059
  68   1.0000      -0.326088        -8.8733
  69   1.0000      -0.324096        -8.8191
  70   1.0000      -0.322193        -8.7673
  71   1.0000      -0.321596        -8.7511
  72   1.0000      -0.312533        -8.5044
  73   1.0000      -0.268578        -7.3084
  74   1.0000      -0.266555        -7.2533
  75   1.0000      -0.257097        -6.9960
  76   1.0000      -0.242218        -6.5911
  77   1.0000      -0.237150        -6.4532
  78   1.0000      -0.209993        -5.7142
  79   0.0000      -0.051454        -1.4001
  80   0.0000      -0.012387        -0.3371
  81   0.0000      -0.005339        -0.1453
  82   0.0000       0.003479         0.0947
  83   0.0000       0.016108         0.4383

                 SPIN DOWN ORBITALS
  NO   OCC          E(Eh)            E(eV)
   0   1.0000     -10.225024      -278.2370
   1   1.0000     -10.217203      -278.0242
   2   1.0000     -10.211344      -277.8648
   3   1.0000     -10.209448      -277.8132
   4   1.0000     -10.202984      -277.6373
   5   1.0000     -10.202846      -277.6336
   6   1.0000     -10.202662      -277.6286
   7   1.0000     -10.202095      -277.6131
   8   1.0000     -10.201885      -277.6074
   9   1.0000     -10.199820      -277.5512
  10   1.0000     -10.199175      -277.5337
  11   1.0000     -10.198460      -277.5142
  12   1.0000     -10.198332      -277.5107
  13   1.0000     -10.196283      -277.4550
  14   1.0000     -10.190462      -277.2966
  15   1.0000     -10.187748      -277.2227
  16   1.0000     -10.183359      -277.1033
  17   1.0000     -10.183112      -277.0966
  18   1.0000     -10.183064      -277.0953
  19   1.0000     -10.182847      -277.0893
  20   1.0000     -10.173750      -276.8418
  21   1.0000     -10.173685      -276.8400
  22   1.0000      -0.864523       -23.5249
  23   1.0000      -0.860596       -23.4180
  24   1.0000      -0.810346       -22.0506
  25   1.0000      -0.793730       -21.5985
  26   1.0000      -0.784679       -21.3522
  27   1.0000      -0.766723       -20.8636
  28   1.0000      -0.756165       -20.5763
  29   1.0000      -0.749179       -20.3862
  30   1.0000      -0.728650       -19.8276
  31   1.0000      -0.710299       -19.3282
  32   1.0000      -0.695113       -18.9150
  33   1.0000      -0.650289       -17.6953
  34   1.0000      -0.628733       -17.1087
  35   1.0000      -0.614870       -16.7315
  36   1.0000      -0.607580       -16.5331
  37   1.0000      -0.600531       -16.3413
  38   1.0000      -0.579714       -15.7748
  39   1.0000      -0.571531       -15.5521
  40   1.0000      -0.560727       -15.2582
  41   1.0000      -0.535140       -14.5619
  42   1.0000      -0.504993       -13.7416
  43   1.0000      -0.478735       -13.0270
  44   1.0000      -0.470876       -12.8132
  45   1.0000      -0.469866       -12.7857
  46   1.0000      -0.465824       -12.6757
  47   1.0000      -0.454789       -12.3754
  48   1.0000      -0.435776       -11.8581
  49   1.0000      -0.433934       -11.8079
  50   1.0000      -0.424384       -11.5481
  51   1.0000      -0.423318       -11.5191
  52   1.0000      -0.421809       -11.4780
  53   1.0000      -0.421151       -11.4601
  54   1.0000      -0.416822       -11.3423
  55   1.0000      -0.411086       -11.1862
  56   1.0000      -0.406461       -11.0604
  57   1.0000      -0.381076       -10.3696
  58   1.0000      -0.373653       -10.1676
  59   1.0000      -0.371428       -10.1071
  60   1.0000      -0.364091        -9.9074
  61   1.0000      -0.361278        -9.8309
  62   1.0000      -0.358496        -9.7552
  63   1.0000      -0.356633        -9.7045
  64   1.0000      -0.349688        -9.5155
  65   1.0000      -0.340675        -9.2702
  66   1.0000      -0.332099        -9.0369
  67   1.0000      -0.329710        -8.9719
  68   1.0000      -0.325519        -8.8578
  69   1.0000      -0.323835        -8.8120
  70   1.0000      -0.322116        -8.7652
  71   1.0000      -0.319940        -8.7060
  72   1.0000      -0.310936        -8.4610
  73   1.0000      -0.266226        -7.2444
  74   1.0000      -0.265625        -7.2280
  75   1.0000      -0.257271        -7.0007
  76   1.0000      -0.242308        -6.5935
  77   1.0000      -0.206311        -5.6140
  78   0.0000      -0.083795        -2.2802
  79   0.0000      -0.047389        -1.2895
  80   0.0000      -0.012532        -0.3410
  81   0.0000      -0.005665        -0.1541
  82   0.0000       0.008168         0.2223

MULLIKEN ATOMIC CHARGES AND SPIN POPULATIONS
--------------------------------------------
   0 C :   -0.365173    0.013710
   1 C :   -0.337711    1.021084
   2 C :    0.500874   -0.081732
   3 C :   -0.423234    0.051567
   4 C :    0.525080   -0.033084
   5 C :    0.224777    0.056104
   6 C :   -0.220290   -0.078014
   7 H :    0.134141    0.011822
   8 H :    0.126217    0.022643
   9 C :   -0.370777    0.029845
  10 H :    0.149509   -0.001309
  11 H :    0.149631   -0.001310
  12 C :   -0.258861    0.000947
  13 H :    0.140788    0.000054
  14 H :    0.140641    0.000054
  15 C :   -0.256517    0.000136
  16 H :    0.141302   -0.000013
  17 H :    0.141363   -0.000013
  18 C :   -0.506407    0.000121
  19 H :    0.157614   -0.000011
  20 H :    0.157609   -0.000011
  21 C :   -0.337313    0.006717
  22 H :    0.152130    0.001688
  23 H :    0.152107    0.001683
  24 C :   -0.268316    0.000008
  25 H :    0.138787    0.000172
  26 H :    0.138845    0.000172
  27 C :   -0.256882    0.000121
  28 H :    0.141610   -0.000016
  29 H :    0.141594   -0.000017
  30 C :   -0.507659   -0.000031
  31 H :    0.157486    0.000001
  32 H :    0.157495    0.000001
  33 C :   -0.313145   -0.018105
  34 H :    0.143334    0.000025
  35 H :    0.142949   -0.000009
  36 C :    0.598373    0.003429
  37 C :   -0.282138   -0.004147
  38 C :   -0.096681    0.001994
  39 C :   -0.123099   -0.004579
  40 C :   -0.099974    0.001992
  41 C :   -0.275791   -0.004171
  42 H :    0.104508    0.000247
  43 H :    0.103514   -0.000086
  44 H :    0.117350    0.000204
  45 H :    0.116751    0.000202
  46 H :    0.103588   -0.000087
Sum of atomic charges         :    0.0000000

LOEWDIN ATOMIC CHARGES AND SPIN POPULATIONS
-------------------------------------------
   0 C :   -0.028540    0.006452
   1 C :    0.010757    0.837194
   2 C :   -0.093092    0.033403
   3 C :   -0.002702    0.043340
   4 C :   -0.076020   -0.025569
   5 C :   -0.036407    0.046594
   6 C :   -0.062638    0.026324
   7 H :    0.062689    0.008121
   8 H :    0.061990    0.016542
   9 C :   -0.054629    0.018364
  10 H :    0.058060   -0.001114
  11 H :    0.058074   -0.001120
  12 C :   -0.084429    0.000443
  13 H :    0.047240    0.000047
  14 H :    0.047203    0.000047
  15 C :   -0.096012    0.000251
  16 H :    0.043525   -0.000005
  17 H :    0.043523   -0.000005
  18 C :   -0.084562    0.000160
  19 H :    0.036371   -0.000004
  20 H :    0.036376   -0.000004
  21 C :   -0.048510    0.006101
  22 H :    0.061960    0.001479
  23 H :    0.061972    0.001478
  24 C :   -0.084915    0.000484
  25 H :    0.046819    0.000094
  26 H :    0.046833    0.000094
  27 C :   -0.096190    0.000413
  28 H :    0.043502    0.000005
  29 H :    0.043504    0.000005
  30 C :   -0.084898    0.000002
  31 H :    0.036384    0.000002
  32 H :    0.036382    0.000002
  33 C :   -0.039875   -0.013516
  34 H :    0.033837    0.000026
  35 H :    0.033855   -0.000006
  36 C :   -0.072877    0.001786
  37 C :   -0.018534   -0.003343
  38 C :   -0.045805    0.001207
  39 C :   -0.047105   -0.003615
  40 C :   -0.046173    0.001204
  41 C :   -0.018914   -0.003331
  42 H :    0.051252   -0.000029
  43 H :    0.052408    0.000013
  44 H :    0.058077   -0.000015
  45 H :    0.057739   -0.000015
  46 H :    0.052496    0.000013

  Mayer bond orders larger than 0.100000
B(  0-C ,  4-C ) :   0.8073 B(  0-C ,  5-C ) :   0.1093 B(  0-C , 33-C ) :   2.5119
B(  1-C ,  2-C ) :   1.2377 B(  1-C ,  3-C ) :   0.1179 B(  1-C ,  5-C ) :   0.1192
B(  1-C ,  6-C ) :   1.3987 B(  2-C ,  3-C ) :   1.4262 B(  2-C ,  9-C ) :   0.9079
B(  3-C ,  4-C ) :   1.4587 B(  3-C ,  7-H ) :   0.9840 B(  4-C ,  5-C ) :   1.4107
B(  4-C ,  6-C ) :   0.1029 B(  4-C , 33-C ) :   0.1010 B(  5-C ,  6-C ) :   1.3839
B(  5-C , 21-C ) :   0.9774 B(  6-C ,  8-H ) :   0.9724 B(  9-C , 10-H ) :   0.9678
B(  9-C , 11-H ) :   0.9677 B(  9-C , 12-C ) :   1.0188 B( 12-C , 13-H ) :   0.9624
B( 12-C , 14-H ) :   0.9623 B( 12-C , 15-C ) :   0.9856 B( 15-C , 16-H ) :   0.9720
B( 15-C , 17-H ) :   0.9720 B( 15-C , 18-C ) :   0.9556 B( 18-C , 19-H ) :   0.9721
B( 18-C , 20-H ) :   0.9721 B( 18-C , 34-H ) :   0.9681 B( 21-C , 22-H ) :   0.9534
B( 21-C , 23-H ) :   0.9537 B( 21-C , 24-C ) :   1.0162 B( 24-C , 25-H ) :   0.9618
B( 24-C , 26-H ) :   0.9619 B( 24-C , 27-C ) :   0.9911 B( 27-C , 28-H ) :   0.9714
B( 27-C , 29-H ) :   0.9714 B( 27-C , 30-C ) :   0.9545 B( 30-C , 31-H ) :   0.9730
B( 30-C , 32-H ) :   0.9730 B( 30-C , 35-H ) :   0.9673 B( 33-C , 36-C ) :   1.0058
B( 36-C , 37-C ) :   1.3903 B( 36-C , 38-C ) :   0.1002 B( 36-C , 41-C ) :   1.3859
B( 37-C , 38-C ) :   1.4757 B( 37-C , 39-C ) :   0.1010 B( 37-C , 44-H ) :   0.9829
B( 38-C , 39-C ) :   1.4524 B( 38-C , 46-H ) :   0.9769 B( 39-C , 40-C ) :   1.4549
B( 39-C , 41-C ) :   0.1023 B( 39-C , 42-H ) :   0.9666 B( 40-C , 41-C ) :   1.4760
B( 40-C , 43-H ) :   0.9780 B( 41-C , 45-H ) :   0.9809

FINAL SINGLE POINT ENERGY      -852.824056313742

DIPOLE MOMENT
-------------
                                X             Y             Z
Electronic contribution:     15.86065      -0.23043       0.01505
Nuclear contribution   :    -15.62451       0.23028      -0.01489
                        -----------------------------------------
Total Dipole Moment    :      0.23615      -0.00015       0.00016
                        -----------------------------------------
Magnitude (a.u.)       :      0.23615
Magnitude (Debye)      :      0.60024

VIBRATIONAL FREQUENCIES
-----------------------

Scaling factor for frequencies =  1.000000000  (already applied!)

   0:         0.00 cm**-1
   1:         0.00 cm**-1
   2:         0.00 cm**-1
   3:         0.00 cm**-1
   4:         0.00 cm**-1
   5:         0.00 cm**-1
   6:       -30.28 cm**-1 ***imaginary mode***
   7:         9.63 cm**-1
   8:        32.76 cm**-1
   9:        41.34 cm**-1
  10:        57.70 cm**-1
  11:        61.21 cm**-1
  12:        87.05 cm**-1
  13:       119.64 cm**-1
  14:       130.20 cm**-1
  15:       132.27 cm**-1
  16:       145.60 cm**-1
  17:       155.30 cm**-1
  18:       161.72 cm**-1
  19:       176.13 cm**-1
  20:       199.09 cm**-1
  21:       229.58 cm**-1
  22:       273.23 cm**-1
  23:       279.49 cm**-1
  24:       298.79 cm**-1
  25:       316.73 cm**-1
  26:       333.05 cm**-1
  27:       334.17 cm**-1
  28:       340.13 cm**-1
  29:       389.36 cm**-1
  30:       408.65 cm**-1
  31:       442.56 cm**-1
  32:       449.37 cm**-1
  33:       468.64 cm**-1
  34:       505.47 cm**-1
  35:       544.20 cm**-1
  36:       549.92 cm**-1
  37:       558.13 cm**-1
  38:       577.64 cm**-1
  39:       602.58 cm**-1
  40:       630.25 cm**-1
  41:       693.73 cm**-1
  42:       705.48 cm**-1
  43:       710.58 cm**-1
  44:       768.41 cm**-1
  45:       771.87 cm**-1
  46:       772.40 cm**-1
  47:       801.04 cm**-1
  48:       814.65 cm**-1
  49:       815.15 cm**-1
  50:       816.51 cm**-1
  51:       886.08 cm**-1
  52:       893.00 cm**-1
  53:       921.64 cm**-1
  54:       922.32 cm**-1
  55:       927.25 cm**-1
  56:       947.41 cm**-1
  57:       959.23 cm**-1
  58:       967.30 cm**-1
  59:       972.20 cm**-1
  60:      1008.08 cm**-1
  61:      1015.07 cm**-1
  62:      1029.42 cm**-1
  63:      1039.59 cm**-1
  64:      1041.83 cm**-1
  65:      1056.07 cm**-1
  66:      1081.55 cm**-1
  67:      1083.81 cm**-1
  68:      1111.23 cm**-1
  69:      1114.58 cm**-1
  70:      1128.08 cm**-1
  71:      1134.70 cm**-1
  72:      1135.70 cm**-1
  73:      1138.94 cm**-1
  74:      1186.16 cm**-1
  75:      1191.54 cm**-1
  76:      1206.49 cm**-1
  77:      1223.41 cm**-1
  78:      1251.98 cm**-1
  79:      1252.75 cm**-1
  80:      1273.38 cm**-1
  81:      1277.73 cm**-1
  82:      1293.35 cm**-1
  83:      1321.48 cm**-1
  84:      1325.22 cm**-1
  85:      1325.69 cm**-1
  86:      1333.49 cm**-1
  87:      1343.15 cm**-1
  88:      1343.33 cm**-1
  89:      1350.51 cm**-1
  90:      1378.62 cm**-1
  91:      1381.02 cm**-1
  92:      1388.29 cm**-1
  93:      1399.67 cm**-1
  94:      1420.17 cm**-1
  95:      1424.25 cm**-1
  96:      1430.89 cm**-1
  97:      1431.09 cm**-1
  98:      1477.66 cm**-1
  99:      1478.28 cm**-1
 100:      1488.24 cm**-1
 101:      1494.02 cm**-1
 102:      1498.64 cm**-1
 103:      1499.10 cm**-1
 104:      1510.37 cm**-1
 105:      1510.92 cm**-1
 106:      1511.77 cm**-1
 107:      1511.92 cm**-1
 108:      1524.36 cm**-1
 109:      1524.61 cm**-1
 110:      1529.51 cm**-1
 111:      1575.49 cm**-1
 112:      1624.02 cm**-1
 113:      1637.76 cm**-1
 114:      1660.76 cm**-1
 115:      2303.03 cm**-1
 116:      2938.53 cm**-1
 117:      2939.28 cm**-1
 118:      2942.81 cm**-1
 119:      2943.96 cm**-1
 120:      2950.68 cm**-1
 121:      2953.17 cm**-1
 122:      2955.76 cm**-1
 123:      2956.10 cm**-1
 124:      2958.52 cm**-1
 125:      2959.67 cm**-1
 126:      2967.88 cm**-1
 127:      2969.89 cm**-1
 128:      2991.24 cm**-1
 129:      2993.00 cm**-1
 130:      3016.97 cm**-1
 131:      3017.24 cm**-1
 132:      3025.25 cm**-1
 133:      3025.52 cm**-1
 134:      3110.73 cm**-1
 135:      3119.06 cm**-1
 136:      3131.21 cm**-1
 137:      3131.87 cm**-1
 138:      3135.09 cm**-1
 139:      3139.44 cm**-1
 140:      3145.26 cm**-1

IR SPECTRUM
-----------

 Mode   freq       eps      Int      T**2         TX        TY        TZ
       cm**-1   L/(mol*cm) km/mol    a.u.
----------------------------------------------------------------------------
  7:      9.63   0.000014    0.07  0.000450  ( 0.000128  0.021216  0.000049)
  8:     32.76   0.000048    0.24  0.000461  ( 0.000002 -0.000211 -0.021465)
  9:     41.34   0.000045    0.23  0.000337  ( 0.000311  0.000015 -0.018359)
 10:     57.70   0.000016    0.08  0.000089  ( 0.008870 -0.003166 -0.000097)
 11:     61.21   0.000014    0.07  0.000071  ( 0.000108 -0.000088  0.008404)
 12:     87.05   0.000056    0.28  0.000200  ( 0.001253 -0.014094 -0.000009)
 13:    119.64   0.000206    1.04  0.000539  ( 0.000111  0.000089  0.023207)
 14:    130.20   0.000033    0.17  0.000079  ( 0.003441 -0.008208 -0.000009)
 15:    132.27   0.000010    0.05  0.000023  ( 0.000039  0.000018  0.004833)
 16:    145.60   0.000004    0.02  0.000008  ( 0.000041 -0.000027  0.002767)
 17:    155.30   0.000089    0.45  0.000179  (-0.000059 -0.000035 -0.013379)
 18:    161.72   0.000005    0.03  0.000010  (-0.000000  0.000009  0.003113)
 19:    176.13   0.000177    0.89  0.000313  ( 0.000089  0.000016  0.017699)
 20:    199.09   0.000039    0.20  0.000061  (-0.001816  0.007571  0.000005)
 21:    229.58   0.000028    0.14  0.000039  ( 0.006170  0.000783 -0.000001)
 22:    273.23   0.000009    0.04  0.000010  (-0.000100 -0.000226  0.003171)
 23:    279.49   0.000131    0.66  0.000147  (-0.010058  0.006748  0.000037)
 24:    298.79   0.000056    0.28  0.000058  (-0.003748  0.006657 -0.000006)
 25:    316.73   0.000182    0.92  0.000179  ( 0.000108  0.000136 -0.013393)
 26:    333.05   0.000003    0.02  0.000003  ( 0.000012 -0.000022  0.001694)
 27:    334.17   0.000013    0.06  0.000012  (-0.000028 -0.000025  0.003438)
 28:    340.13   0.000052    0.26  0.000048  (-0.002890  0.006290  0.000012)
 29:    389.36   0.000124    0.62  0.000099  (-0.000156  0.000042  0.009952)
 30:    408.65   0.000000    0.00  0.000000  ( 0.000050  0.000016 -0.000148)
 31:    442.56   0.000197    0.99  0.000139  ( 0.003890 -0.011112 -0.000033)
 32:    449.37   0.000539    2.73  0.000375  ( 0.005780 -0.018472  0.000032)
 33:    468.64   0.001366    6.90  0.000910  (-0.000082  0.000164 -0.030161)
 34:    505.47   0.000300    1.52  0.000185  (-0.002539  0.013376  0.000035)
 35:    544.20   0.004231   21.38  0.002426  (-0.049253 -0.000281 -0.000057)
 36:    549.92   0.000455    2.30  0.000258  (-0.000064 -0.000263  0.016065)
 37:    558.13   0.000498    2.52  0.000278  ( 0.015093 -0.007105 -0.000029)
 38:    577.64   0.000113    0.57  0.000061  ( 0.000143  0.000133 -0.007800)
 39:    602.58   0.000310    1.57  0.000161  ( 0.012557 -0.001723 -0.000002)
 40:    630.25   0.000000    0.00  0.000000  ( 0.000361 -0.000093  0.000003)
 41:    693.73   0.000070    0.35  0.000032  ( 0.005199  0.002135  0.000016)
 42:    705.48   0.000093    0.47  0.000041  ( 0.000087  0.000043 -0.006430)
 43:    710.58   0.003259   16.47  0.001431  ( 0.000026  0.000295 -0.037829)
 44:    768.41   0.001135    5.74  0.000461  (-0.000001  0.000092 -0.021473)
 45:    771.87   0.000007    0.04  0.000003  ( 0.000997 -0.001360 -0.000129)
 46:    772.40   0.000640    3.23  0.000259  ( 0.000008 -0.000032  0.016079)
 47:    801.04   0.012103   61.16  0.004715  ( 0.000125  0.000516 -0.068664)
 48:    814.65   0.000232    1.17  0.000089  (-0.000031 -0.000011  0.009419)
 49:    815.15   0.000005    0.03  0.000002  (-0.001094  0.000921 -0.000095)
 50:    816.51   0.000328    1.66  0.000125  (-0.000040 -0.000040  0.011195)
 51:    886.08   0.000004    0.02  0.000001  (-0.000040  0.000001 -0.001220)
 52:    893.00   0.001185    5.99  0.000414  ( 0.000003 -0.000048  0.020352)
 53:    921.64   0.001581    7.99  0.000535  ( 0.000002 -0.000171 -0.023137)
 54:    922.32   0.000256    1.29  0.000087  ( 0.000901  0.009219 -0.000854)
 55:    927.25   0.000494    2.50  0.000166  (-0.005441 -0.011692 -0.000053)
 56:    947.41   0.002662   13.45  0.000877  ( 0.021548  0.020307  0.000056)
 57:    959.23   0.000696    3.52  0.000227  (-0.000025 -0.000200  0.015050)
 58:    967.30   0.000041    0.21  0.000013  (-0.000010 -0.000025 -0.003635)
 59:    972.20   0.001732    8.75  0.000556  ( 0.000032  0.000152 -0.023580)
 60:   1008.08   0.000001    0.01  0.000000  ( 0.000603  0.000057 -0.000000)
 61:   1015.07   0.000001    0.01  0.000000  ( 0.000018  0.000009  0.000604)
 62:   1029.42   0.000006    0.03  0.000002  ( 0.000032 -0.000045 -0.001397)
 63:   1039.59   0.000217    1.10  0.000065  ( 0.006066 -0.005324 -0.000003)
 64:   1041.83   0.000212    1.07  0.000063  (-0.007942 -0.000610 -0.000007)
 65:   1056.07   0.001267    6.40  0.000374  (-0.019240 -0.002029 -0.000015)
 66:   1081.55   0.000016    0.08  0.000005  ( 0.001128 -0.001860  0.000005)
 67:   1083.81   0.000032    0.16  0.000009  (-0.000283 -0.003021 -0.000010)
 68:   1111.23   0.001183    5.98  0.000332  (-0.001175 -0.018189 -0.000046)
 69:   1114.58   0.000064    0.32  0.000018  (-0.002857  0.003126 -0.000004)
 70:   1128.08   0.001016    5.13  0.000281  (-0.010257 -0.013258 -0.000041)
 71:   1134.70   0.000381    1.93  0.000105  (-0.002486 -0.009930 -0.000028)
 72:   1135.70   0.000000    0.00  0.000000  ( 0.000044  0.000097  0.000228)
 73:   1138.94   0.000021    0.11  0.000006  (-0.000020 -0.000092  0.002388)
 74:   1186.16   0.000120    0.61  0.000032  ( 0.001118 -0.005508  0.000015)
 75:   1191.54   0.000000    0.00  0.000000  ( 0.000025 -0.000210 -0.000000)
 76:   1206.49   0.000002    0.01  0.000000  ( 0.000553  0.000382 -0.000001)
 77:   1223.41   0.000749    3.79  0.000191  ( 0.013747  0.001452 -0.000002)
 78:   1251.98   0.000011    0.05  0.000003  ( 0.000026  0.000041 -0.001634)
 79:   1252.75   0.000002    0.01  0.000001  ( 0.000005  0.000035 -0.000729)
 80:   1273.38   0.000254    1.28  0.000062  ( 0.005342  0.005801  0.000016)
 81:   1277.73   0.001339    6.77  0.000327  ( 0.014348  0.011009  0.000038)
 82:   1293.35   0.000012    0.06  0.000003  ( 0.001697 -0.000292  0.000002)
 83:   1321.48   0.001225    6.19  0.000289  (-0.007402 -0.015311 -0.000020)
 84:   1325.22   0.000001    0.00  0.000000  (-0.000031 -0.000018  0.000352)
 85:   1325.69   0.000112    0.57  0.000026  (-0.000011 -0.000005 -0.005137)
 86:   1333.49   0.000007    0.04  0.000002  ( 0.000312 -0.001250 -0.000006)
 87:   1343.15   0.000003    0.01  0.000001  ( 0.000012 -0.000000 -0.000781)
 88:   1343.33   0.000117    0.59  0.000027  (-0.000013 -0.000007  0.005217)
 89:   1350.51   0.001314    6.64  0.000304  ( 0.013246 -0.011321 -0.000010)
 90:   1378.62   0.000017    0.08  0.000004  ( 0.000078  0.001949  0.000006)
 91:   1381.02   0.000520    2.63  0.000117  (-0.010720 -0.001572 -0.000009)
 92:   1388.29   0.002169   10.96  0.000488  ( 0.013797  0.017239  0.000048)
 93:   1399.67   0.001387    7.01  0.000309  ( 0.002775  0.017366  0.000040)
 94:   1420.17   0.005121   25.88  0.001125  ( 0.012471  0.031142  0.000074)
 95:   1424.25   0.000133    0.67  0.000029  (-0.005312 -0.000921 -0.000006)
 96:   1430.89   0.001969    9.95  0.000429  (-0.017946  0.010364  0.000020)
 97:   1431.09   0.000019    0.09  0.000004  (-0.001016  0.001749 -0.000004)
 98:   1477.66   0.002492   12.59  0.000526  (-0.022041 -0.006357 -0.000030)
 99:   1478.28   0.000790    3.99  0.000167  (-0.001873 -0.012778 -0.000051)
100:   1488.24   0.001194    6.03  0.000250  ( 0.014191  0.006994  0.000017)
101:   1494.02   0.002865   14.48  0.000598  (-0.005438 -0.023849 -0.000057)
102:   1498.64   0.000155    0.78  0.000032  ( 0.001059  0.005577  0.000006)
103:   1499.10   0.000149    0.75  0.000031  (-0.002882  0.004773  0.000002)
104:   1510.37   0.000029    0.14  0.000006  ( 0.002252  0.000914 -0.000005)
105:   1510.92   0.000394    1.99  0.000081  (-0.000683  0.008990  0.000020)
106:   1511.77   0.001788    9.03  0.000369  (-0.000029 -0.000039  0.019211)
107:   1511.92   0.001745    8.82  0.000360  ( 0.000032  0.000054 -0.018981)
108:   1524.36   0.000031    0.16  0.000006  ( 0.000704  0.002412  0.000004)
109:   1524.61   0.004624   23.37  0.000946  ( 0.029651  0.008198  0.000047)
110:   1529.51   0.005779   29.21  0.001179  ( 0.034338  0.000077  0.000020)
111:   1575.49   0.000881    4.45  0.000175  (-0.012160 -0.005163 -0.000018)
112:   1624.02   0.000359    1.82  0.000069  (-0.000008  0.008310  0.000028)
113:   1637.76   0.000311    1.57  0.000059  ( 0.006101 -0.004685 -0.000013)
114:   1660.76   0.004645   23.48  0.000873  (-0.029507  0.001484 -0.000009)
115:   2303.03   0.001966    9.94  0.000266  ( 0.016321 -0.000110  0.000013)
116:   2938.53   0.000095    0.48  0.000010  (-0.001574 -0.002753 -0.000010)
117:   2939.28   0.000316    1.60  0.000034  (-0.004953  0.003000  0.000013)
118:   2942.81   0.001964    9.93  0.000208  (-0.014380  0.001221 -0.000039)
119:   2943.96   0.002041   10.31  0.000216  (-0.014707  0.000105 -0.000053)
120:   2950.68   0.007164   36.21  0.000758  ( 0.027222  0.004085  0.000013)
121:   2953.17   0.010771   54.43  0.001138  ( 0.031601  0.011814 -0.000052)
122:   2955.76   0.008695   43.94  0.000918  (-0.021719  0.021125  0.000041)
123:   2956.10   0.009761   49.33  0.001030  ( 0.025479 -0.019527 -0.000090)
124:   2958.52   0.000178    0.90  0.000019  (-0.000116  0.000033 -0.004333)
125:   2959.67   0.000280    1.41  0.000030  (-0.000360  0.000013 -0.005419)
126:   2967.88   0.000032    0.16  0.000003  (-0.000071  0.000004  0.001828)
127:   2969.89   0.000044    0.22  0.000005  (-0.000226 -0.000025  0.002130)
128:   2991.24   0.006733   34.02  0.000702  ( 0.000017  0.000064 -0.026502)
129:   2993.00   0.007934   40.10  0.000827  ( 0.000053 -0.000083  0.028762)
130:   3016.97   0.010790   54.53  0.001116  ( 0.000048  0.000093 -0.033408)
131:   3017.24   0.016677   84.28  0.001725  (-0.000051 -0.000149  0.041531)
132:   3025.25   0.008826   44.60  0.000910  (-0.021567 -0.021101 -0.000105)
133:   3025.52   0.008852   44.74  0.000913  (-0.023161 -0.019406 -0.000115)
134:   3110.73   0.000747    3.77  0.000075  ( 0.008642 -0.000465  0.000003)
135:   3119.06   0.001575    7.96  0.000158  ( 0.000657  0.012536  0.000042)
136:   3131.21   0.002068   10.45  0.000206  ( 0.008205 -0.011782 -0.000014)
137:   3131.87   0.005624   28.42  0.000560  ( 0.023615 -0.001653  0.000010)
138:   3135.09   0.000519    2.62  0.000052  ( 0.000462  0.007172  0.000008)
139:   3139.44   0.005639   28.50  0.000561  (-0.001489 -0.023629 -0.000078)
140:   3145.26   0.002671   13.50  0.000265  (-0.016239  0.001127 -0.000005)

--------------------------
THERMOCHEMISTRY AT 298.15K
--------------------------

Temperature         ... 298.15 K
Pressure            ... 1.00 atm
Total Mass          ... 289.44 AMU

Throughout the following assumptions are being made:
  (1) The electronic state is orbitally nondegenerate
      but the spin degeneracy is treated
  (2) There are no thermally accessible electronically excited states
  (3) Hindered rotations indicated by low frequency modes are not
      treated as such but are treated as vibrations and this may
      cause some error
  (4) All equations used are the standard statistical mechanics
      equations for an ideal gas
  (5) All vibrations are strictly harmonic

freq.       9.63  E(vib)   ...       0.58
freq.      32.76  E(vib)   ...       0.55
freq.      41.34  E(vib)   ...       0.54
freq.      57.70  E(vib)   ...       0.51
freq.      61.21  E(vib)   ...       0.51
freq.      87.05  E(vib)   ...       0.48
freq.     119.64  E(vib)   ...       0.44
freq.     130.20  E(vib)   ...       0.43
freq.     132.27  E(vib)   ...       0.42
freq.     145.60  E(vib)   ...       0.41
freq.     155.30  E(vib)   ...       0.40
freq.     161.72  E(vib)   ...       0.39
freq.     176.13  E(vib)   ...       0.38
freq.     199.09  E(vib)   ...       0.35
freq.     229.58  E(vib)   ...       0.32
freq.     273.23  E(vib)   ...       0.29
freq.     279.49  E(vib)   ...       0.28
freq.     298.79  E(vib)   ...       0.26
freq.     316.73  E(vib)   ...       0.25
freq.     333.05  E(vib)   ...       0.24
freq.     334.17  E(vib)   ...       0.24
freq.     340.13  E(vib)   ...       0.23
freq.     389.36  E(vib)   ...       0.20
freq.     408.65  E(vib)   ...       0.19
freq.     442.56  E(vib)   ...       0.17
freq.     449.37  E(vib)   ...       0.17
freq.     468.64  E(vib)   ...       0.16
freq.     505.47  E(vib)   ...       0.14
freq.     544.20  E(vib)   ...       0.12
freq.     549.92  E(vib)   ...       0.12
freq.     558.13  E(vib)   ...       0.12
freq.     577.64  E(vib)   ...       0.11
freq.     602.58  E(vib)   ...       0.10
freq.     630.25  E(vib)   ...       0.09
freq.     693.73  E(vib)   ...       0.07
freq.     705.48  E(vib)   ...       0.07
freq.     710.58  E(vib)   ...       0.07
freq.     768.41  E(vib)   ...       0.06
freq.     771.87  E(vib)   ...       0.05
freq.     772.40  E(vib)   ...       0.05
freq.     801.04  E(vib)   ...       0.05
freq.     814.65  E(vib)   ...       0.05
freq.     815.15  E(vib)   ...       0.05
freq.     816.51  E(vib)   ...       0.05
freq.     886.08  E(vib)   ...       0.04
freq.     893.00  E(vib)   ...       0.03
freq.     921.64  E(vib)   ...       0.03
freq.     922.32  E(vib)   ...       0.03
freq.     927.25  E(vib)   ...       0.03
freq.     947.41  E(vib)   ...       0.03
freq.     959.23  E(vib)   ...       0.03
freq.     967.30  E(vib)   ...       0.03
freq.     972.20  E(vib)   ...       0.03
freq.    1008.08  E(vib)   ...       0.02
freq.    1015.07  E(vib)   ...       0.02
freq.    1029.42  E(vib)   ...       0.02
freq.    1039.59  E(vib)   ...       0.02
freq.    1041.83  E(vib)   ...       0.02
freq.    1056.07  E(vib)   ...       0.02
freq.    1081.55  E(vib)   ...       0.02
freq.    1083.81  E(vib)   ...       0.02
freq.    1111.23  E(vib)   ...       0.01
freq.    1114.58  E(vib)   ...       0.01
freq.    1128.08  E(vib)   ...       0.01
freq.    1134.70  E(vib)   ...       0.01
freq.    1135.70  E(vib)   ...       0.01
freq.    1138.94  E(vib)   ...       0.01
freq.    1186.16  E(vib)   ...       0.01
freq.    1191.54  E(vib)   ...       0.01
freq.    1206.49  E(vib)   ...       0.01
freq.    1223.41  E(vib)   ...       0.01
freq.    1251.98  E(vib)   ...       0.01
freq.    1252.75  E(vib)   ...       0.01
freq.    1273.38  E(vib)   ...       0.01
freq.    1277.73  E(vib)   ...       0.01
freq.    1293.35  E(vib)   ...       0.01
freq.    1321.48  E(vib)   ...       0.01
freq.    1325.22  E(vib)   ...       0.01
freq.    1325.69  E(vib)   ...       0.01
freq.    1333.49  E(vib)   ...       0.01
freq.    1343.15  E(vib)   ...       0.01
freq.    1343.33  E(vib)   ...       0.01
freq.    1350.51  E(vib)   ...       0.01
freq.    1378.62  E(vib)   ...       0.01
freq.    1381.02  E(vib)   ...       0.01
freq.    1388.29  E(vib)   ...       0.00
freq.    1399.67  E(vib)   ...       0.00
freq.    1420.17  E(vib)   ...       0.00
freq.    1424.25  E(vib)   ...       0.00
freq.    1430.89  E(vib)   ...       0.00
freq.    1431.09  E(vib)   ...       0.00
freq.    1477.66  E(vib)   ...       0.00
freq.    1478.28  E(vib)   ...       0.00
freq.    1488.24  E(vib)   ...       0.00
freq.    1494.02  E(vib)   ...       0.00
freq.    1498.64  E(vib)   ...       0.00
freq.    1499.10  E(vib)   ...       0.00
freq.    1510.37  E(vib)   ...       0.00
freq.    1510.92  E(vib)   ...       0.00
freq.    1511.77  E(vib)   ...       0.00
freq.    1511.92  E(vib)   ...       0.00
freq.    1524.36  E(vib)   ...       0.00
freq.    1524.61  E(vib)   ...       0.00
freq.    1529.51  E(vib)   ...       0.00
freq.    1575.49  E(vib)   ...       0.00
freq.    1624.02  E(vib)   ...       0.00
freq.    1637.76  E(vib)   ...       0.00
freq.    1660.76  E(vib)   ...       0.00
freq.    2303.03  E(vib)   ...       0.00
freq.    2938.53  E(vib)   ...       0.00
freq.    2939.28  E(vib)   ...       0.00
freq.    2942.81  E(vib)   ...       0.00
freq.    2943.96  E(vib)   ...       0.00
freq.    2950.68  E(vib)   ...       0.00
freq.    2953.17  E(vib)   ...       0.00
freq.    2955.76  E(vib)   ...       0.00
freq.    2956.10  E(vib)   ...       0.00
freq.    2958.52  E(vib)   ...       0.00
freq.    2959.67  E(vib)   ...       0.00
freq.    2967.88  E(vib)   ...       0.00
freq.    2969.89  E(vib)   ...       0.00
freq.    2991.24  E(vib)   ...       0.00
freq.    2993.00  E(vib)   ...       0.00
freq.    3016.97  E(vib)   ...       0.00
freq.    3017.24  E(vib)   ...       0.00
freq.    3025.25  E(vib)   ...       0.00
freq.    3025.52  E(vib)   ...       0.00
freq.    3110.73  E(vib)   ...       0.00
freq.    3119.06  E(vib)   ...       0.00
freq.    3131.21  E(vib)   ...       0.00
freq.    3131.87  E(vib)   ...       0.00
freq.    3135.09  E(vib)   ...       0.00
freq.    3139.44  E(vib)   ...       0.00
freq.    3145.26  E(vib)   ...       0.00

------------
INNER ENERGY
------------

The inner energy is: U= E(el) + E(ZPE) + E(vib) + E(rot) + E(trans)
    E(el)   - is the total energy from the electronic structure calculation
              = E(kin-el) + E(nuc-el) + E(el-el) + E(nuc-nuc)
    E(ZPE)  - the the zero temperature vibrational energy from the frequency calculation

Rotational constants in cm-1:     0.007056     0.004915     0.002910

                             ****ORCA TERMINATED NORMALLY****
TOTAL RUN TIME: 0 days 0 hours 17 minutes 55 seconds 603 msec
