                         Program Version 4.2.1 -  RELEASE  -
|  1> ! B3LYP cc-pVDZ AUTOAUX
|  2> %pal nprocs 16 end
|  3> *XYZFile 0 2 opt.xyz
|  4> %EPRNMR
|  5>         GTENSOR   TRUE
|  6>         NUCLEI    = ALL H {AISO, ADIP, AORB}
|  7> END
|  8>
|  9>                          ****END OF INPUT****

CARTESIAN COORDINATES (ANGSTROEM)
---------------------------------
  C      3.991511   -0.051354    0.061761
  C      2.775483   -0.000375    0.043916
  C     -2.905329    0.003409   -0.019251
  C      1.348208    0.035463    0.027039
  C      0.635275    1.289740    0.016328
  C     -0.785894    1.210426    0.001471
  C     -1.471436   -0.005307   -0.003499
  C     -0.755768   -1.242411    0.006457
  C      0.640064   -1.178273    0.021464
  H     -1.370423    2.130486   -0.006719
  H      1.222046   -2.099597    0.029704
  C      1.311352    2.530280    0.019986
  H      2.404598    2.504162    0.031406
  C      0.641667    3.871557    0.008845
  H     -0.020572    3.957390   -0.877730
  H     -0.041612    3.961980    0.878868
  C      1.626221    5.047629    0.017286
  H      2.276228    4.966554    0.907965
  H      2.295774    4.962474   -0.858453
  C      0.932591    6.410773    0.006552
  H      0.280469    6.536126    0.888444
  H      0.300292    6.532105   -0.890213
  C     -1.518605   -2.551097    0.000737
  H     -2.204257   -2.555865    0.869274
  H     -2.190332   -2.556088   -0.878503
  C     -0.687377   -3.836461    0.007269
  H     -0.016292   -3.854077   -0.871818
  H     -0.031038   -3.855000    0.897344
  C     -1.554960   -5.100430   -0.000339
  H     -2.228001   -5.085489    0.877518
  H     -2.214964   -5.083782   -0.887967
  C     -0.735037   -6.392483    0.004372
  H     -0.090218   -6.455138    0.898268
  H     -0.077834   -6.453758   -0.880570
  C     -4.120999    0.013860   -0.034176
  H      5.062546   -0.102884    0.083466
  H     -5.193380    0.029268   -0.049948
  H      1.664045    7.234693    0.012825
  H     -1.384275   -7.282850   -0.000814

 Total Charge           Charge          ....    0
 Multiplicity           Mult            ....    2
 Number of Electrons    NEL             ....  129
 Basis Dimension        Dim             ....  357

ORBITAL ENERGIES
----------------
                 SPIN UP ORBITALS
  NO   OCC          E(Eh)            E(eV)
   0   1.0000     -10.215269      -277.9716
   1   1.0000     -10.213292      -277.9178
   2   1.0000     -10.204156      -277.6692
   3   1.0000     -10.199966      -277.5552
   4   1.0000     -10.196411      -277.4584
   5   1.0000     -10.193884      -277.3897
   6   1.0000     -10.192588      -277.3544
   7   1.0000     -10.191654      -277.3290
   8   1.0000     -10.190846      -277.3070
   9   1.0000     -10.189013      -277.2571
  10   1.0000     -10.187821      -277.2247
  11   1.0000     -10.187480      -277.2154
  12   1.0000     -10.186780      -277.1964
  13   1.0000     -10.184564      -277.1361
  14   1.0000     -10.182465      -277.0790
  15   1.0000     -10.182130      -277.0699
  16   1.0000     -10.177519      -276.9444
  17   1.0000     -10.175923      -276.9009
  18   1.0000      -0.875638       -23.8273
  19   1.0000      -0.821219       -22.3465
  20   1.0000      -0.798517       -21.7288
  21   1.0000      -0.796539       -21.6749
  22   1.0000      -0.769176       -20.9303
  23   1.0000      -0.752775       -20.4840
  24   1.0000      -0.731917       -19.9165
  25   1.0000      -0.721375       -19.6296
  26   1.0000      -0.698902       -19.0181
  27   1.0000      -0.657676       -17.8963
  28   1.0000      -0.640095       -17.4179
  29   1.0000      -0.618123       -16.8200
  30   1.0000      -0.594767       -16.1844
  31   1.0000      -0.581058       -15.8114
  32   1.0000      -0.563400       -15.3309
  33   1.0000      -0.542243       -14.7552
  34   1.0000      -0.524640       -14.2762
  35   1.0000      -0.499494       -13.5919
  36   1.0000      -0.486900       -13.2492
  37   1.0000      -0.478552       -13.0220
  38   1.0000      -0.471332       -12.8256
  39   1.0000      -0.463029       -12.5997
  40   1.0000      -0.434287       -11.8176
  41   1.0000      -0.430650       -11.7186
  42   1.0000      -0.426987       -11.6189
  43   1.0000      -0.422565       -11.4986
  44   1.0000      -0.412753       -11.2316
  45   1.0000      -0.399124       -10.8607
  46   1.0000      -0.398628       -10.8472
  47   1.0000      -0.381085       -10.3699
  48   1.0000      -0.379855       -10.3364
  49   1.0000      -0.366147        -9.9634
  50   1.0000      -0.358282        -9.7494
  51   1.0000      -0.355030        -9.6609
  52   1.0000      -0.341270        -9.2864
  53   1.0000      -0.333505        -9.0751
  54   1.0000      -0.331744        -9.0272
  55   1.0000      -0.331125        -9.0104
  56   1.0000      -0.328442        -8.9374
  57   1.0000      -0.325272        -8.8511
  58   1.0000      -0.321627        -8.7519
  59   1.0000      -0.285552        -7.7703
  60   1.0000      -0.276404        -7.5213
  61   1.0000      -0.274837        -7.4787
  62   1.0000      -0.271300        -7.3824
  63   1.0000      -0.230998        -6.2858
  64   1.0000      -0.174641        -4.7522
  65   0.0000      -0.048444        -1.3182
  66   0.0000       0.010867         0.2957
  67   0.0000       0.040404         1.0995
  68   0.0000       0.049362         1.3432
  69   0.0000       0.052725         1.4347

                 SPIN DOWN ORBITALS
  NO   OCC          E(Eh)            E(eV)
   0   1.0000     -10.214853      -277.9603
   1   1.0000     -10.211889      -277.8796
   2   1.0000     -10.202377      -277.6208
   3   1.0000     -10.200737      -277.5762
   4   1.0000     -10.193390      -277.3762
   5   1.0000     -10.193201      -277.3711
   6   1.0000     -10.192266      -277.3457
   7   1.0000     -10.191562      -277.3265
   8   1.0000     -10.189690      -277.2756
   9   1.0000     -10.188027      -277.2303
  10   1.0000     -10.188021      -277.2301
  11   1.0000     -10.185553      -277.1630
  12   1.0000     -10.184526      -277.1350
  13   1.0000     -10.183874      -277.1173
  14   1.0000     -10.182462      -277.0789
  15   1.0000     -10.182131      -277.0699
  16   1.0000     -10.177526      -276.9446
  17   1.0000     -10.175924      -276.9010
  18   1.0000      -0.872214       -23.7341
  19   1.0000      -0.816152       -22.2086
  20   1.0000      -0.795888       -21.6572
  21   1.0000      -0.795146       -21.6370
  22   1.0000      -0.767126       -20.8746
  23   1.0000      -0.751903       -20.4603
  24   1.0000      -0.727817       -19.8049
  25   1.0000      -0.719903       -19.5896
  26   1.0000      -0.696533       -18.9536
  27   1.0000      -0.654625       -17.8133
  28   1.0000      -0.638221       -17.3669
  29   1.0000      -0.612539       -16.6680
  30   1.0000      -0.593810       -16.1584
  31   1.0000      -0.579491       -15.7688
  32   1.0000      -0.560843       -15.2613
  33   1.0000      -0.540959       -14.7202
  34   1.0000      -0.522097       -14.2070
  35   1.0000      -0.497300       -13.5322
  36   1.0000      -0.485465       -13.2102
  37   1.0000      -0.477174       -12.9846
  38   1.0000      -0.470465       -12.8020
  39   1.0000      -0.459513       -12.5040
  40   1.0000      -0.432171       -11.7600
  41   1.0000      -0.429238       -11.6802
  42   1.0000      -0.425761       -11.5855
  43   1.0000      -0.419883       -11.4256
  44   1.0000      -0.412266       -11.2183
  45   1.0000      -0.397526       -10.8172
  46   1.0000      -0.391256       -10.6466
  47   1.0000      -0.377555       -10.2738
  48   1.0000      -0.377192       -10.2639
  49   1.0000      -0.364987        -9.9318
  50   1.0000      -0.357285        -9.7222
  51   1.0000      -0.351881        -9.5752
  52   1.0000      -0.338977        -9.2240
  53   1.0000      -0.332984        -9.0610
  54   1.0000      -0.330108        -8.9827
  55   1.0000      -0.328734        -8.9453
  56   1.0000      -0.328096        -8.9279
  57   1.0000      -0.324506        -8.8303
  58   1.0000      -0.320867        -8.7312
  59   1.0000      -0.280012        -7.6195
  60   1.0000      -0.276354        -7.5200
  61   1.0000      -0.274196        -7.4613
  62   1.0000      -0.258860        -7.0439
  63   1.0000      -0.222978        -6.0675
  64   0.0000      -0.084399        -2.2966
  65   0.0000      -0.039379        -1.0716
  66   0.0000       0.026944         0.7332
  67   0.0000       0.040802         1.1103
  68   0.0000       0.049665         1.3515

MULLIKEN ATOMIC CHARGES AND SPIN POPULATIONS
--------------------------------------------
   0 C :   -0.581342    0.098900
   1 C :    0.607690   -0.058132
   2 C :    0.601438    0.026039
   3 C :   -0.052109    0.226139
   4 C :    0.077635   -0.165521
   5 C :   -0.007583    0.216191
   6 C :   -0.027565   -0.107384
   7 C :   -0.079763    0.234971
   8 C :    0.031101   -0.116365
   9 H :   -0.047879   -0.008855
  10 H :   -0.048421    0.004122
  11 C :   -0.099776    0.706748
  12 H :   -0.018499   -0.030072
  13 C :    0.031833   -0.048352
  14 H :    0.029299    0.031756
  15 H :    0.029645    0.031658
  16 C :   -0.040283    0.002199
  17 H :    0.012974    0.000509
  18 H :    0.013389    0.000496
  19 C :    0.004969   -0.000146
  20 H :    0.017496    0.000152
  21 H :    0.017273    0.000152
  22 C :    0.040345   -0.018514
  23 H :    0.033776    0.010089
  24 H :    0.033406    0.010011
  25 C :   -0.039176    0.000851
  26 H :    0.017188    0.000182
  27 H :    0.017011    0.000175
  28 C :   -0.023543    0.000026
  29 H :    0.006487    0.000056
  30 H :    0.006150    0.000056
  31 C :    0.003282   -0.000079
  32 H :    0.016941    0.000023
  33 H :    0.017148    0.000023
  34 C :   -0.580316   -0.045669
  35 H :   -0.024412   -0.003928
  36 H :   -0.023084    0.001704
  37 H :    0.015093   -0.000204
  38 H :    0.012182   -0.000006
Sum of atomic charges         :   -0.0000000

LOEWDIN ATOMIC CHARGES AND SPIN POPULATIONS
-------------------------------------------
   0 C :   -0.050743    0.079465
   1 C :   -0.002865   -0.022623
   2 C :   -0.001066    0.011800
   3 C :   -0.040627    0.161828
   4 C :   -0.039355   -0.070125
   5 C :    0.011458    0.163562
   6 C :   -0.053931   -0.058641
   7 C :   -0.004719    0.174158
   8 C :   -0.006611   -0.063562
   9 H :    0.029687    0.000938
  10 H :    0.031237   -0.000514
  11 C :    0.013561    0.580912
  12 H :    0.023552    0.003411
  13 C :   -0.054660    0.005613
  14 H :    0.034662    0.024832
  15 H :    0.034672    0.024753
  16 C :   -0.046104    0.001153
  17 H :    0.025854    0.000316
  18 H :    0.025940    0.000309
  19 C :   -0.067694   -0.000024
  20 H :    0.025584    0.000251
  21 H :    0.025551    0.000251
  22 C :   -0.035533    0.002233
  23 H :    0.040127    0.007947
  24 H :    0.040047    0.007885
  25 C :   -0.043995    0.000155
  26 H :    0.024650    0.000059
  27 H :    0.024571    0.000057
  28 C :   -0.046983    0.000020
  29 H :    0.024179    0.000092
  30 H :    0.024114    0.000092
  31 C :   -0.067341   -0.000038
  32 H :    0.025224    0.000016
  33 H :    0.025265    0.000016
  34 C :   -0.049277   -0.036524
  35 H :    0.022421    0.000176
  36 H :    0.022883   -0.000129
  37 H :    0.028786   -0.000112
  38 H :    0.027482   -0.000007

  Mayer bond orders larger than 0.100000
B(  0-C ,  1-C ) :   2.1517 B(  0-C , 35-H ) :   1.1054 B(  1-C ,  3-C ) :   0.9128
B(  2-C ,  6-C ) :   0.9083 B(  2-C , 34-C ) :   2.1785 B(  3-C ,  4-C ) :   1.2788
B(  3-C ,  8-C ) :   1.3896 B(  4-C ,  5-C ) :   1.2887 B(  4-C , 11-C ) :   1.3672
B(  5-C ,  6-C ) :   1.4342 B(  5-C ,  9-H ) :   0.9220 B(  6-C ,  7-C ) :   1.3447
B(  7-C ,  8-C ) :   1.4124 B(  7-C , 22-C ) :   1.0932 B(  8-C , 10-H ) :   0.9231
B( 11-C , 12-H ) :   0.9041 B( 11-C , 13-C ) :   1.0828 B( 13-C , 14-H ) :   0.9122
B( 13-C , 15-H ) :   0.9123 B( 13-C , 16-C ) :   1.0715 B( 16-C , 17-H ) :   0.9442
B( 16-C , 18-H ) :   0.9442 B( 16-C , 19-C ) :   1.1056 B( 19-C , 20-H ) :   0.9654
B( 19-C , 21-H ) :   0.9654 B( 19-C , 37-H ) :   0.9612 B( 22-C , 23-H ) :   0.8973
B( 22-C , 24-H ) :   0.8972 B( 22-C , 25-C ) :   1.1022 B( 25-C , 26-H ) :   0.9297
B( 25-C , 27-H ) :   0.9295 B( 25-C , 28-C ) :   1.0741 B( 28-C , 29-H ) :   0.9416
B( 28-C , 30-H ) :   0.9416 B( 28-C , 31-C ) :   1.1039 B( 31-C , 32-H ) :   0.9665
B( 31-C , 33-H ) :   0.9665 B( 31-C , 38-H ) :   0.9627 B( 34-C , 36-H ) :   1.1040

FINAL SINGLE POINT ENERGY      -697.967067962880

DIPOLE MOMENT
-------------
                                X             Y             Z
Electronic contribution:      0.60819       2.28860       0.03869
Nuclear contribution   :     -0.69956      -2.25026      -0.03837
                        -----------------------------------------
Total Dipole Moment    :     -0.09137       0.03834       0.00032
                        -----------------------------------------
Magnitude (a.u.)       :      0.09909
Magnitude (Debye)      :      0.25186

Rotational constants in cm-1:     0.022559     0.005966     0.004748
Rotational constants in MHz :   676.289778   178.862773   142.329161

                             ****ORCA TERMINATED NORMALLY****
TOTAL RUN TIME: 0 days 0 hours 22 minutes 56 seconds 110 msec
