                         Program Version 4.2.1 -  RELEASE  -
|  1> ! B3LYP cc-pVDZ OPT
|  2> %pal nprocs 16 end
|  3> *XYZFile 0 2 Rhop.xyz
|  4>
|  5>                          ****END OF INPUT****
 Total Charge           Charge          ....    0
 Multiplicity           Mult            ....    2
 Number of Electrons    NEL             ....  129
FINAL SINGLE POINT ENERGY      -697.940451932600
FINAL SINGLE POINT ENERGY      -697.950604558826
FINAL SINGLE POINT ENERGY      -697.956497153982
FINAL SINGLE POINT ENERGY      -697.960683272032
FINAL SINGLE POINT ENERGY      -697.963796112458
FINAL SINGLE POINT ENERGY      -697.965818240261
FINAL SINGLE POINT ENERGY      -697.966725230034
FINAL SINGLE POINT ENERGY      -697.966811046693
FINAL SINGLE POINT ENERGY      -697.966835072018
FINAL SINGLE POINT ENERGY      -697.966846196448
FINAL SINGLE POINT ENERGY      -697.966855465926
FINAL SINGLE POINT ENERGY      -697.966874678976
FINAL SINGLE POINT ENERGY      -697.966917274476
FINAL SINGLE POINT ENERGY      -697.967010615599
FINAL SINGLE POINT ENERGY      -697.967033971967
FINAL SINGLE POINT ENERGY      -697.967055877329
FINAL SINGLE POINT ENERGY      -697.967066201897
FINAL SINGLE POINT ENERGY      -697.967067701195
                    ***********************HURRAY********************

CARTESIAN COORDINATES (ANGSTROEM)
---------------------------------
  C      3.991511   -0.051354    0.061761
  C      2.775483   -0.000375    0.043916
  C     -2.905329    0.003409   -0.019251
  C      1.348208    0.035463    0.027039
  C      0.635275    1.289740    0.016328
  C     -0.785894    1.210426    0.001471
  C     -1.471436   -0.005307   -0.003499
  C     -0.755768   -1.242411    0.006457
  C      0.640064   -1.178273    0.021464
  H     -1.370423    2.130486   -0.006719
  H      1.222046   -2.099597    0.029704
  C      1.311352    2.530280    0.019986
  H      2.404598    2.504162    0.031406
  C      0.641667    3.871557    0.008845
  H     -0.020572    3.957390   -0.877730
  H     -0.041612    3.961980    0.878868
  C      1.626221    5.047629    0.017286
  H      2.276228    4.966554    0.907965
  H      2.295774    4.962474   -0.858453
  C      0.932591    6.410773    0.006552
  H      0.280469    6.536126    0.888444
  H      0.300292    6.532105   -0.890213
  C     -1.518605   -2.551097    0.000737
  H     -2.204257   -2.555865    0.869274
  H     -2.190332   -2.556088   -0.878503
  C     -0.687377   -3.836461    0.007269
  H     -0.016292   -3.854077   -0.871818
  H     -0.031038   -3.855000    0.897344
  C     -1.554960   -5.100430   -0.000339
  H     -2.228001   -5.085489    0.877518
  H     -2.214964   -5.083782   -0.887967
  C     -0.735037   -6.392483    0.004372
  H     -0.090218   -6.455138    0.898268
  H     -0.077834   -6.453758   -0.880570
  C     -4.120999    0.013860   -0.034176
  H      5.062546   -0.102884    0.083466
  H     -5.193380    0.029268   -0.049948
  H      1.664045    7.234693    0.012825
  H     -1.384275   -7.282850   -0.000814

 Multiplicity           Mult            ....    2
 Number of Electrons    NEL             ....  129
 Basis Dimension        Dim             ....  357

ORBITAL ENERGIES
----------------
                 SPIN UP ORBITALS
  NO   OCC          E(Eh)            E(eV)
   0   1.0000     -10.215286      -277.9721
   1   1.0000     -10.213239      -277.9164
   2   1.0000     -10.204166      -277.6695
   3   1.0000     -10.199921      -277.5540
   4   1.0000     -10.196438      -277.4592
   5   1.0000     -10.193877      -277.3895
   6   1.0000     -10.192624      -277.3554
   7   1.0000     -10.191616      -277.3280
   8   1.0000     -10.190829      -277.3066
   9   1.0000     -10.189001      -277.2568
  10   1.0000     -10.187813      -277.2245
  11   1.0000     -10.187444      -277.2144
  12   1.0000     -10.186811      -277.1972
  13   1.0000     -10.184564      -277.1361
  14   1.0000     -10.182467      -277.0790
  15   1.0000     -10.182132      -277.0699
  16   1.0000     -10.177513      -276.9442
  17   1.0000     -10.175917      -276.9008
  18   1.0000      -0.875636       -23.8273
  19   1.0000      -0.821211       -22.3463
  20   1.0000      -0.798514       -21.7287
  21   1.0000      -0.796537       -21.6749
  22   1.0000      -0.769173       -20.9303
  23   1.0000      -0.752778       -20.4841
  24   1.0000      -0.731913       -19.9164
  25   1.0000      -0.721378       -19.6297
  26   1.0000      -0.698900       -19.0180
  27   1.0000      -0.657673       -17.8962
  28   1.0000      -0.640089       -17.4177
  29   1.0000      -0.618121       -16.8199
  30   1.0000      -0.594763       -16.1843
  31   1.0000      -0.581054       -15.8113
  32   1.0000      -0.563395       -15.3308
  33   1.0000      -0.542244       -14.7552
  34   1.0000      -0.524638       -14.2761
  35   1.0000      -0.499491       -13.5918
  36   1.0000      -0.486901       -13.2492
  37   1.0000      -0.478547       -13.0219
  38   1.0000      -0.471333       -12.8256
  39   1.0000      -0.463022       -12.5995
  40   1.0000      -0.434281       -11.8174
  41   1.0000      -0.430649       -11.7185
  42   1.0000      -0.426984       -11.6188
  43   1.0000      -0.422568       -11.4987
  44   1.0000      -0.412750       -11.2315
  45   1.0000      -0.399119       -10.8606
  46   1.0000      -0.398625       -10.8471
  47   1.0000      -0.381082       -10.3698
  48   1.0000      -0.379848       -10.3362
  49   1.0000      -0.366146        -9.9633
  50   1.0000      -0.358281        -9.7493
  51   1.0000      -0.355036        -9.6610
  52   1.0000      -0.341266        -9.2863
  53   1.0000      -0.333498        -9.0749
  54   1.0000      -0.331735        -9.0270
  55   1.0000      -0.331125        -9.0104
  56   1.0000      -0.328441        -8.9373
  57   1.0000      -0.325270        -8.8510
  58   1.0000      -0.321628        -8.7519
  59   1.0000      -0.285556        -7.7704
  60   1.0000      -0.276400        -7.5212
  61   1.0000      -0.274849        -7.4790
  62   1.0000      -0.271269        -7.3816
  63   1.0000      -0.231004        -6.2859
  64   1.0000      -0.174733        -4.7547
  65   0.0000      -0.048403        -1.3171
  66   0.0000       0.010910         0.2969
  67   0.0000       0.040403         1.0994
  68   0.0000       0.049361         1.3432
  69   0.0000       0.052723         1.4347

                 SPIN DOWN ORBITALS
  NO   OCC          E(Eh)            E(eV)
   0   1.0000     -10.214875      -277.9609
   1   1.0000     -10.211849      -277.8785
   2   1.0000     -10.202379      -277.6208
   3   1.0000     -10.200699      -277.5751
   4   1.0000     -10.193339      -277.3749
   5   1.0000     -10.193224      -277.3717
   6   1.0000     -10.192236      -277.3448
   7   1.0000     -10.191598      -277.3275
   8   1.0000     -10.189683      -277.2754
   9   1.0000     -10.188065      -277.2314
  10   1.0000     -10.188018      -277.2301
  11   1.0000     -10.185523      -277.1622
  12   1.0000     -10.184524      -277.1350
  13   1.0000     -10.183858      -277.1169
  14   1.0000     -10.182464      -277.0789
  15   1.0000     -10.182132      -277.0699
  16   1.0000     -10.177521      -276.9444
  17   1.0000     -10.175919      -276.9008
  18   1.0000      -0.872212       -23.7341
  19   1.0000      -0.816148       -22.2085
  20   1.0000      -0.795889       -21.6572
  21   1.0000      -0.795143       -21.6369
  22   1.0000      -0.767121       -20.8744
  23   1.0000      -0.751907       -20.4604
  24   1.0000      -0.727817       -19.8049
  25   1.0000      -0.719914       -19.5899
  26   1.0000      -0.696529       -18.9535
  27   1.0000      -0.654617       -17.8130
  28   1.0000      -0.638217       -17.3668
  29   1.0000      -0.612527       -16.6677
  30   1.0000      -0.593808       -16.1583
  31   1.0000      -0.579489       -15.7687
  32   1.0000      -0.560843       -15.2613
  33   1.0000      -0.540957       -14.7202
  34   1.0000      -0.522098       -14.2070
  35   1.0000      -0.497300       -13.5322
  36   1.0000      -0.485460       -13.2100
  37   1.0000      -0.477172       -12.9845
  38   1.0000      -0.470462       -12.8019
  39   1.0000      -0.459509       -12.5039
  40   1.0000      -0.432167       -11.7599
  41   1.0000      -0.429234       -11.6800
  42   1.0000      -0.425756       -11.5854
  43   1.0000      -0.419877       -11.4254
  44   1.0000      -0.412263       -11.2183
  45   1.0000      -0.397522       -10.8171
  46   1.0000      -0.391252       -10.6465
  47   1.0000      -0.377550       -10.2737
  48   1.0000      -0.377193       -10.2639
  49   1.0000      -0.364982        -9.9317
  50   1.0000      -0.357280        -9.7221
  51   1.0000      -0.351874        -9.5750
  52   1.0000      -0.338972        -9.2239
  53   1.0000      -0.332980        -9.0608
  54   1.0000      -0.330117        -8.9829
  55   1.0000      -0.328733        -8.9453
  56   1.0000      -0.328095        -8.9279
  57   1.0000      -0.324503        -8.8302
  58   1.0000      -0.320870        -8.7313
  59   1.0000      -0.280011        -7.6195
  60   1.0000      -0.276365        -7.5203
  61   1.0000      -0.274194        -7.4612
  62   1.0000      -0.258903        -7.0451
  63   1.0000      -0.223021        -6.0687
  64   0.0000      -0.084298        -2.2939
  65   0.0000      -0.039361        -1.0711
  66   0.0000       0.026928         0.7328
  67   0.0000       0.040802         1.1103
  68   0.0000       0.049665         1.3515

MULLIKEN ATOMIC CHARGES AND SPIN POPULATIONS
--------------------------------------------
   0 C :   -0.581313    0.102154
   1 C :    0.607663   -0.061007
   2 C :    0.601436    0.029672
   3 C :   -0.052075    0.228746
   4 C :    0.077605   -0.167517
   5 C :   -0.007557    0.219539
   6 C :   -0.027555   -0.110756
   7 C :   -0.079753    0.237287
   8 C :    0.031102   -0.119119
   9 H :   -0.047884   -0.009131
  10 H :   -0.048426    0.004343
  11 C :   -0.099763    0.706895
  12 H :   -0.018515   -0.030134
  13 C :    0.031833   -0.048469
  14 H :    0.029296    0.031755
  15 H :    0.029642    0.031661
  16 C :   -0.040290    0.002230
  17 H :    0.012973    0.000503
  18 H :    0.013387    0.000490
  19 C :    0.004976   -0.000151
  20 H :    0.017493    0.000153
  21 H :    0.017271    0.000153
  22 C :    0.040349   -0.018796
  23 H :    0.033771    0.010166
  24 H :    0.033400    0.010087
  25 C :   -0.039182    0.000878
  26 H :    0.017189    0.000179
  27 H :    0.017011    0.000172
  28 C :   -0.023548    0.000025
  29 H :    0.006488    0.000056
  30 H :    0.006151    0.000056
  31 C :    0.003293   -0.000081
  32 H :    0.016938    0.000023
  33 H :    0.017145    0.000024
  34 C :   -0.580327   -0.049711
  35 H :   -0.024410   -0.004154
  36 H :   -0.023084    0.001987
  37 H :    0.015090   -0.000204
  38 H :    0.012180   -0.000006
Sum of atomic charges         :   -0.0000000

LOEWDIN ATOMIC CHARGES AND SPIN POPULATIONS
-------------------------------------------
   0 C :   -0.050710    0.081797
   1 C :   -0.002882   -0.024283
   2 C :   -0.001070    0.013906
   3 C :   -0.040595    0.163268
   4 C :   -0.039383   -0.071189
   5 C :    0.011476    0.165753
   6 C :   -0.053917   -0.060503
   7 C :   -0.004719    0.175500
   8 C :   -0.006616   -0.065339
   9 H :    0.029684    0.000873
  10 H :    0.031234   -0.000464
  11 C :    0.013546    0.580804
  12 H :    0.023549    0.003374
  13 C :   -0.054661    0.005546
  14 H :    0.034659    0.024825
  15 H :    0.034670    0.024748
  16 C :   -0.046110    0.001167
  17 H :    0.025853    0.000313
  18 H :    0.025940    0.000306
  19 C :   -0.067691   -0.000027
  20 H :    0.025583    0.000251
  21 H :    0.025550    0.000251
  22 C :   -0.035533    0.002183
  23 H :    0.040124    0.008000
  24 H :    0.040044    0.007938
  25 C :   -0.044000    0.000163
  26 H :    0.024650    0.000057
  27 H :    0.024571    0.000055
  28 C :   -0.046987    0.000019
  29 H :    0.024179    0.000092
  30 H :    0.024114    0.000092
  31 C :   -0.067335   -0.000038
  32 H :    0.025223    0.000016
  33 H :    0.025264    0.000016
  34 C :   -0.049274   -0.039412
  35 H :    0.022422    0.000129
  36 H :    0.022884   -0.000069
  37 H :    0.028784   -0.000111
  38 H :    0.027481   -0.000007

  Mayer bond orders larger than 0.100000
B(  0-C ,  1-C ) :   2.1516 B(  0-C , 35-H ) :   1.1054 B(  1-C ,  3-C ) :   0.9129
B(  2-C ,  6-C ) :   0.9083 B(  2-C , 34-C ) :   2.1784 B(  3-C ,  4-C ) :   1.2785
B(  3-C ,  8-C ) :   1.3896 B(  4-C ,  5-C ) :   1.2884 B(  4-C , 11-C ) :   1.3678
B(  5-C ,  6-C ) :   1.4340 B(  5-C ,  9-H ) :   0.9220 B(  6-C ,  7-C ) :   1.3445
B(  7-C ,  8-C ) :   1.4122 B(  7-C , 22-C ) :   1.0932 B(  8-C , 10-H ) :   0.9231
B( 11-C , 12-H ) :   0.9040 B( 11-C , 13-C ) :   1.0827 B( 13-C , 14-H ) :   0.9122
B( 13-C , 15-H ) :   0.9123 B( 13-C , 16-C ) :   1.0715 B( 16-C , 17-H ) :   0.9442
B( 16-C , 18-H ) :   0.9442 B( 16-C , 19-C ) :   1.1056 B( 19-C , 20-H ) :   0.9654
B( 19-C , 21-H ) :   0.9654 B( 19-C , 37-H ) :   0.9612 B( 22-C , 23-H ) :   0.8973
B( 22-C , 24-H ) :   0.8972 B( 22-C , 25-C ) :   1.1022 B( 25-C , 26-H ) :   0.9297
B( 25-C , 27-H ) :   0.9295 B( 25-C , 28-C ) :   1.0741 B( 28-C , 29-H ) :   0.9416
B( 28-C , 30-H ) :   0.9416 B( 28-C , 31-C ) :   1.1039 B( 31-C , 32-H ) :   0.9665
B( 31-C , 33-H ) :   0.9665 B( 31-C , 38-H ) :   0.9627 B( 34-C , 36-H ) :   1.1040

FINAL SINGLE POINT ENERGY      -697.967069057681

DIPOLE MOMENT
-------------
                                X             Y             Z
Electronic contribution:      0.60828       2.28847       0.03869
Nuclear contribution   :     -0.69956      -2.25026      -0.03837
                        -----------------------------------------
Total Dipole Moment    :     -0.09127       0.03821       0.00032
                        -----------------------------------------
Magnitude (a.u.)       :      0.09895
Magnitude (Debye)      :      0.25151

Rotational constants in cm-1:     0.022559     0.005966     0.004748
Rotational constants in MHz :   676.289778   178.862773   142.329161

                             ****ORCA TERMINATED NORMALLY****
TOTAL RUN TIME: 0 days 0 hours 22 minutes 25 seconds 375 msec
