                         Program Version 5.0.4 -  RELEASE  -
|  1> ! B3LYP cc-pVDZ AUTOAUX
|  2> %pal nprocs 16 end
|  3> *XYZFile 0 2 opt_cc-pVDZ.xyz
|  4> %EPRNMR
|  5>         GTENSOR   TRUE
|  6>         NUCLEI    = ALL H {SHIFT, AISO, ADIP, AORB}
|  7>         ORI       CenterOfElCharge
|  8> END
|  9>
| 10>                          ****END OF INPUT****

CARTESIAN COORDINATES (ANGSTROEM)
---------------------------------
  C      4.055706   -0.073371    0.001296
  C      2.833589   -0.006538   -0.001788
  C     -2.844896    0.019441   -0.004853
  C      1.413452    0.037492   -0.002626
  C      0.700746    1.295345   -0.002276
  C     -0.721463    1.219527   -0.003060
  C     -1.411403    0.007110   -0.004114
  C     -0.698475   -1.233396   -0.004423
  C      0.695638   -1.174525   -0.003765
  H     -1.303846    2.141153   -0.002844
  H      1.274517   -2.097895   -0.004026
  C      1.376832    2.533498   -0.001126
  H      2.469694    2.505632   -0.000730
  C      0.711306    3.877473   -0.000581
  H      0.041481    3.969632   -0.880471
  H      0.037166    3.966822    0.876259
  C      1.701380    5.049569    0.003759
  H      2.358533    4.962282    0.888281
  H      2.362997    4.965135   -0.877712
  C      1.013977    6.416298    0.004221
  H      0.370441    6.540985    0.892269
  H      0.374953    6.543854   -0.886675
  C     -1.466173   -2.538927   -0.005427
  H     -2.145358   -2.541094    0.867612
  H     -2.144360   -2.540372   -0.879243
  C     -0.640808   -3.828219   -0.005469
  H      0.023102   -3.849434   -0.889318
  H      0.022055   -3.850135    0.879151
  C     -1.515522   -5.087936   -0.006485
  H     -2.182461   -5.068245    0.875368
  H     -2.181282   -5.067647   -0.889215
  C     -0.702818   -6.385152   -0.006382
  H     -0.053167   -6.450604    0.883538
  H     -0.051837   -6.449911   -0.895380
  C     -4.060788    0.033376   -0.006353
  H     -5.133102    0.050110   -0.008357
  H      1.748939    7.237269    0.007413
  H     -1.357157   -7.271992   -0.007216
  C      8.290695   -0.349767    0.011455
  C      7.669171    0.904370    0.011023
  C      6.278250    1.001632    0.007668
  C      5.479338   -0.163533    0.004673
  C      6.117761   -1.424109    0.005135
  C      7.509230   -1.511054    0.008499
  H      9.380814   -0.421986    0.014080
  H      5.506311   -2.328412    0.002815
  H      8.273777    1.814555    0.013324
  H      7.988698   -2.492952    0.008817
  H      5.792544    1.979267    0.007327

 Total Charge           Charge          ....    0
 Multiplicity           Mult            ....    2
 Number of Electrons    NEL             ....  169
 Basis Dimension        Dim             ....  461

ORBITAL ENERGIES
----------------
                 SPIN UP ORBITALS
  NO   OCC          E(Eh)            E(eV)
   0   1.0000     -10.215555      -277.9794
   1   1.0000     -10.214239      -277.9436
   2   1.0000     -10.211651      -277.8732
   3   1.0000     -10.202720      -277.6301
   4   1.0000     -10.198351      -277.5112
   5   1.0000     -10.196503      -277.4610
   6   1.0000     -10.196246      -277.4540
   7   1.0000     -10.195214      -277.4259
   8   1.0000     -10.195122      -277.4234
   9   1.0000     -10.194447      -277.4050
  10   1.0000     -10.194267      -277.4001
  11   1.0000     -10.192550      -277.3534
  12   1.0000     -10.191547      -277.3261
  13   1.0000     -10.189701      -277.2759
  14   1.0000     -10.189361      -277.2666
  15   1.0000     -10.188449      -277.2418
  16   1.0000     -10.186600      -277.1915
  17   1.0000     -10.186493      -277.1886
  18   1.0000     -10.186054      -277.1766
  19   1.0000     -10.184412      -277.1319
  20   1.0000     -10.181581      -277.0549
  21   1.0000     -10.181390      -277.0497
  22   1.0000     -10.177404      -276.9412
  23   1.0000     -10.175481      -276.8889
  24   1.0000      -0.873880       -23.7795
  25   1.0000      -0.862528       -23.4706
  26   1.0000      -0.820071       -22.3153
  27   1.0000      -0.799036       -21.7429
  28   1.0000      -0.795889       -21.6572
  29   1.0000      -0.778129       -21.1740
  30   1.0000      -0.767729       -20.8910
  31   1.0000      -0.750251       -20.4154
  32   1.0000      -0.744621       -20.2622
  33   1.0000      -0.730342       -19.8736
  34   1.0000      -0.713547       -19.4166
  35   1.0000      -0.697693       -18.9852
  36   1.0000      -0.656845       -17.8737
  37   1.0000      -0.643810       -17.5190
  38   1.0000      -0.618023       -16.8173
  39   1.0000      -0.612672       -16.6716
  40   1.0000      -0.608157       -16.5488
  41   1.0000      -0.592643       -16.1266
  42   1.0000      -0.580356       -15.7923
  43   1.0000      -0.562081       -15.2950
  44   1.0000      -0.540769       -14.7151
  45   1.0000      -0.529291       -14.4027
  46   1.0000      -0.506695       -13.7879
  47   1.0000      -0.491807       -13.3828
  48   1.0000      -0.479888       -13.0584
  49   1.0000      -0.476000       -12.9526
  50   1.0000      -0.470380       -12.7997
  51   1.0000      -0.462595       -12.5879
  52   1.0000      -0.456864       -12.4319
  53   1.0000      -0.435940       -11.8625
  54   1.0000      -0.432315       -11.7639
  55   1.0000      -0.429402       -11.6846
  56   1.0000      -0.426178       -11.5969
  57   1.0000      -0.423416       -11.5217
  58   1.0000      -0.421615       -11.4727
  59   1.0000      -0.411819       -11.2062
  60   1.0000      -0.398668       -10.8483
  61   1.0000      -0.397961       -10.8291
  62   1.0000      -0.383907       -10.4466
  63   1.0000      -0.378645       -10.3035
  64   1.0000      -0.377066       -10.2605
  65   1.0000      -0.365283        -9.9399
  66   1.0000      -0.361003        -9.8234
  67   1.0000      -0.356472        -9.7001
  68   1.0000      -0.353680        -9.6241
  69   1.0000      -0.349688        -9.5155
  70   1.0000      -0.340411        -9.2630
  71   1.0000      -0.332953        -9.0601
  72   1.0000      -0.331455        -9.0193
  73   1.0000      -0.331255        -9.0139
  74   1.0000      -0.327521        -8.9123
  75   1.0000      -0.324164        -8.8209
  76   1.0000      -0.321285        -8.7426
  77   1.0000      -0.299685        -8.1548
  78   1.0000      -0.275112        -7.4862
  79   1.0000      -0.273278        -7.4363
  80   1.0000      -0.267427        -7.2771
  81   1.0000      -0.258400        -7.0314
  82   1.0000      -0.255329        -6.9478
  83   1.0000      -0.216693        -5.8965
  84   1.0000      -0.170806        -4.6479
  85   0.0000      -0.056611        -1.5405
  86   0.0000      -0.011568        -0.3148
  87   0.0000      -0.009817        -0.2671
  88   0.0000       0.013138         0.3575
  89   0.0000       0.041638         1.1330

                 SPIN DOWN ORBITALS
  NO   OCC          E(Eh)            E(eV)
   0   1.0000     -10.215908      -277.9890
   1   1.0000     -10.213285      -277.9176
   2   1.0000     -10.210875      -277.8520
   3   1.0000     -10.200808      -277.5781
   4   1.0000     -10.199315      -277.5375
   5   1.0000     -10.196125      -277.4507
   6   1.0000     -10.195871      -277.4438
   7   1.0000     -10.194916      -277.4178
   8   1.0000     -10.194609      -277.4094
   9   1.0000     -10.194263      -277.4000
  10   1.0000     -10.192134      -277.3421
  11   1.0000     -10.191290      -277.3191
  12   1.0000     -10.191156      -277.3155
  13   1.0000     -10.189121      -277.2601
  14   1.0000     -10.188762      -277.2503
  15   1.0000     -10.186752      -277.1956
  16   1.0000     -10.186695      -277.1941
  17   1.0000     -10.186682      -277.1937
  18   1.0000     -10.184374      -277.1309
  19   1.0000     -10.182705      -277.0855
  20   1.0000     -10.181579      -277.0548
  21   1.0000     -10.181389      -277.0497
  22   1.0000     -10.177412      -276.9415
  23   1.0000     -10.175483      -276.8890
  24   1.0000      -0.870573       -23.6895
  25   1.0000      -0.862065       -23.4580
  26   1.0000      -0.815183       -22.1823
  27   1.0000      -0.796343       -21.6696
  28   1.0000      -0.794688       -21.6246
  29   1.0000      -0.777281       -21.1509
  30   1.0000      -0.765716       -20.8362
  31   1.0000      -0.749894       -20.4057
  32   1.0000      -0.743504       -20.2318
  33   1.0000      -0.726473       -19.7683
  34   1.0000      -0.712761       -19.3952
  35   1.0000      -0.695505       -18.9256
  36   1.0000      -0.653824       -17.7915
  37   1.0000      -0.642589       -17.4857
  38   1.0000      -0.614386       -16.7183
  39   1.0000      -0.609824       -16.5941
  40   1.0000      -0.607922       -16.5424
  41   1.0000      -0.591746       -16.1022
  42   1.0000      -0.578751       -15.7486
  43   1.0000      -0.559645       -15.2287
  44   1.0000      -0.540226       -14.7003
  45   1.0000      -0.528004       -14.3677
  46   1.0000      -0.503507       -13.7011
  47   1.0000      -0.490996       -13.3607
  48   1.0000      -0.478650       -13.0247
  49   1.0000      -0.475040       -12.9265
  50   1.0000      -0.469537       -12.7767
  51   1.0000      -0.459202       -12.4955
  52   1.0000      -0.456656       -12.4262
  53   1.0000      -0.435338       -11.8461
  54   1.0000      -0.430482       -11.7140
  55   1.0000      -0.428162       -11.6509
  56   1.0000      -0.425015       -11.5652
  57   1.0000      -0.423310       -11.5189
  58   1.0000      -0.419002       -11.4016
  59   1.0000      -0.411342       -11.1932
  60   1.0000      -0.396889       -10.7999
  61   1.0000      -0.391133       -10.6433
  62   1.0000      -0.381276       -10.3750
  63   1.0000      -0.376365       -10.2414
  64   1.0000      -0.374440       -10.1890
  65   1.0000      -0.364161        -9.9093
  66   1.0000      -0.360558        -9.8113
  67   1.0000      -0.355631        -9.6772
  68   1.0000      -0.350706        -9.5432
  69   1.0000      -0.349520        -9.5109
  70   1.0000      -0.338191        -9.2027
  71   1.0000      -0.332428        -9.0458
  72   1.0000      -0.329868        -8.9762
  73   1.0000      -0.329001        -8.9526
  74   1.0000      -0.327178        -8.9030
  75   1.0000      -0.323401        -8.8002
  76   1.0000      -0.320638        -8.7250
  77   1.0000      -0.296874        -8.0783
  78   1.0000      -0.275081        -7.4853
  79   1.0000      -0.267002        -7.2655
  80   1.0000      -0.259936        -7.0732
  81   1.0000      -0.257392        -7.0040
  82   1.0000      -0.250530        -6.8173
  83   1.0000      -0.210242        -5.7210
  84   0.0000      -0.085866        -2.3365
  85   0.0000      -0.048576        -1.3218
  86   0.0000      -0.008949        -0.2435
  87   0.0000      -0.006430        -0.1750
  88   0.0000       0.029352         0.7987

MULLIKEN ATOMIC CHARGES AND SPIN POPULATIONS
--------------------------------------------
   0 C :    0.145929    0.099282
   1 C :    0.276198   -0.066172
   2 C :    0.626410    0.029496
   3 C :   -0.177172    0.223454
   4 C :    0.071780   -0.169465
   5 C :   -0.010848    0.219151
   6 C :   -0.022881   -0.111054
   7 C :   -0.076250    0.233701
   8 C :    0.007246   -0.118612
   9 H :   -0.049820   -0.009096
  10 H :   -0.054095    0.004306
  11 C :   -0.100751    0.694959
  12 H :   -0.025755   -0.030198
  13 C :    0.034254   -0.047657
  14 H :    0.029687    0.031173
  15 H :    0.029710    0.031045
  16 C :   -0.039645    0.002259
  17 H :    0.012444    0.000472
  18 H :    0.012451    0.000460
  19 C :    0.006040   -0.000178
  20 H :    0.017919    0.000152
  21 H :    0.017927    0.000152
  22 C :    0.043389   -0.018544
  23 H :    0.031957    0.009973
  24 H :    0.031960    0.009976
  25 C :   -0.036082    0.000865
  26 H :    0.016570    0.000170
  27 H :    0.016559    0.000170
  28 C :   -0.024198    0.000024
  29 H :    0.006191    0.000052
  30 H :    0.006189    0.000052
  31 C :    0.002989   -0.000080
  32 H :    0.017057    0.000023
  33 H :    0.017053    0.000023
  34 C :   -0.606388   -0.049918
  35 H :   -0.029314    0.001974
  36 H :    0.013414   -0.000200
  37 H :    0.012809   -0.000005
  38 C :    0.032711    0.028563
  39 C :    0.039940   -0.013660
  40 C :    0.025146    0.026029
  41 C :   -0.257791   -0.023128
  42 C :    0.030316    0.026111
  43 C :    0.040549   -0.013647
  44 H :   -0.027335   -0.001306
  45 H :   -0.040695   -0.001141
  46 H :   -0.027618    0.000538
  47 H :   -0.027250    0.000537
  48 H :   -0.038905   -0.001082
Sum of atomic charges         :   -0.0000000

LOEWDIN ATOMIC CHARGES AND SPIN POPULATIONS
-------------------------------------------
   0 C :   -0.022152    0.072799
   1 C :   -0.016938   -0.029696
   2 C :   -0.001053    0.013680
   3 C :   -0.038324    0.159800
   4 C :   -0.039826   -0.072422
   5 C :    0.010777    0.165042
   6 C :   -0.054985   -0.060928
   7 C :   -0.005365    0.172526
   8 C :   -0.008187   -0.064952
   9 H :    0.029451    0.000873
  10 H :    0.029721   -0.000459
  11 C :    0.012463    0.569792
  12 H :    0.021419    0.003363
  13 C :   -0.054471    0.005373
  14 H :    0.034643    0.024332
  15 H :    0.034611    0.024224
  16 C :   -0.046137    0.001155
  17 H :    0.025556    0.000300
  18 H :    0.025552    0.000293
  19 C :   -0.067635   -0.000043
  20 H :    0.025742    0.000244
  21 H :    0.025741    0.000245
  22 C :   -0.034892    0.002181
  23 H :    0.039750    0.007853
  24 H :    0.039751    0.007854
  25 C :   -0.043608    0.000149
  26 H :    0.024386    0.000053
  27 H :    0.024388    0.000053
  28 C :   -0.047005    0.000016
  29 H :    0.024188    0.000088
  30 H :    0.024187    0.000088
  31 C :   -0.067707   -0.000038
  32 H :    0.025141    0.000016
  33 H :    0.025140    0.000016
  34 C :   -0.051065   -0.039549
  35 H :    0.022629   -0.000074
  36 H :    0.028277   -0.000110
  37 H :    0.027491   -0.000007
  38 C :   -0.021946    0.022096
  39 C :   -0.024090   -0.008045
  40 C :   -0.002926    0.020111
  41 C :   -0.053512   -0.010498
  42 C :   -0.001498    0.020169
  43 C :   -0.023964   -0.008026
  44 H :    0.028060    0.000086
  45 H :    0.029947    0.000021
  46 H :    0.029318   -0.000036
  47 H :    0.029375   -0.000034
  48 H :    0.029580    0.000024

  Mayer bond orders larger than 0.100000
B(  0-C ,  1-C ) :   1.7155 B(  0-C , 41-C ) :   0.9325 B(  1-C ,  3-C ) :   0.8778
B(  1-C , 41-C ) :  -0.1817 B(  2-C ,  6-C ) :   0.9021 B(  2-C , 34-C ) :   2.1221
B(  3-C ,  4-C ) :   1.2779 B(  3-C ,  8-C ) :   1.4023 B(  4-C ,  5-C ) :   1.2855
B(  4-C , 11-C ) :   1.3830 B(  5-C ,  6-C ) :   1.4434 B(  5-C ,  9-H ) :   0.9177
B(  6-C ,  7-C ) :   1.3362 B(  7-C ,  8-C ) :   1.4214 B(  7-C , 22-C ) :   1.0929
B(  8-C , 10-H ) :   0.9212 B( 11-C , 12-H ) :   0.8994 B( 11-C , 13-C ) :   1.0840
B( 13-C , 14-H ) :   0.9115 B( 13-C , 15-H ) :   0.9114 B( 13-C , 16-C ) :   1.0715
B( 16-C , 17-H ) :   0.9438 B( 16-C , 18-H ) :   0.9438 B( 16-C , 19-C ) :   1.1066
B( 19-C , 20-H ) :   0.9653 B( 19-C , 21-H ) :   0.9653 B( 19-C , 36-H ) :   0.9608
B( 22-C , 23-H ) :   0.8964 B( 22-C , 24-H ) :   0.8964 B( 22-C , 25-C ) :   1.1040
B( 25-C , 26-H ) :   0.9293 B( 25-C , 27-H ) :   0.9293 B( 25-C , 28-C ) :   1.0750
B( 28-C , 29-H ) :   0.9410 B( 28-C , 30-H ) :   0.9410 B( 28-C , 31-C ) :   1.1060
B( 31-C , 32-H ) :   0.9662 B( 31-C , 33-H ) :   0.9662 B( 31-C , 37-H ) :   0.9617
B( 34-C , 35-H ) :   1.1184 B( 38-C , 39-C ) :   1.4430 B( 38-C , 43-C ) :   1.4428
B( 38-C , 44-H ) :   0.9432 B( 39-C , 40-C ) :   1.4714 B( 39-C , 46-H ) :   0.9378
B( 40-C , 41-C ) :   1.4369 B( 40-C , 48-H ) :   0.9405 B( 41-C , 42-C ) :   1.4391
B( 42-C , 43-C ) :   1.4724 B( 42-C , 45-H ) :   0.9398 B( 43-C , 47-H ) :   0.9378

FINAL SINGLE POINT ENERGY      -928.901723754605

DIPOLE MOMENT
-------------
                                X             Y             Z
Electronic contribution:     10.55422       2.01466       0.00403
Nuclear contribution   :    -10.39818      -1.99730      -0.00336
                        -----------------------------------------
Total Dipole Moment    :      0.15604       0.01736       0.00067
                        -----------------------------------------
Magnitude (a.u.)       :      0.15701
Magnitude (Debye)      :      0.39909

Rotational constants in cm-1:     0.006531     0.004288     0.002597
Rotational constants in MHz :   195.794338   128.564357    77.869077

CHEMICAL SHIELDING SUMMARY (ppm)  --  Orbital contribution
----------------------------------------------------------

  Nucleus  Element    Isotropic     Anisotropy
  -------  -------  ------------   ------------
      9       H           32.491         35.629
     10       H          103.549         15.470
     12       H          103.142         16.725
     14       H           48.459         32.627
     15       H           48.598         32.542
     17       H           60.809         19.827
     18       H           60.663         19.814
     20       H            2.369         24.677
     21       H            2.242         24.732
     23       H           30.458         52.881
     24       H           30.367         52.890
     26       H          103.941         16.133
     27       H          104.033         16.086
     29       H            1.781         31.851
     30       H            1.699         31.855
     32       H           45.424         13.420
     33       H           45.363         13.446
     35       H          -92.361       -106.425
     36       H          -48.075         24.795
     37       H          -79.567        -75.943
     44       H         -124.748       -172.167
     45       H           94.599         19.464
     46       H          -57.715          1.369
     47       H          -49.580          4.186
     48       H           85.926         20.700

                             ****ORCA TERMINATED NORMALLY****
TOTAL RUN TIME: 0 days 1 hours 19 minutes 48 seconds 397 msec
