                         Program Version 5.0.4 -  RELEASE  -
|  1> ! B3LYP cc-pVDZ AUTOAUX
|  2> %pal nprocs 16 end
|  3> *XYZFile 0 2 opt_cc-pVDZ.xyz
|  4> %EPRNMR
|  5>         GTENSOR   TRUE
|  6>         NUCLEI    = ALL H {SHIFT, AISO, ADIP, AORB}
|  7>         ORI       GIAO
|  8> END
|  9>
| 10>                          ****END OF INPUT****

CARTESIAN COORDINATES (ANGSTROEM)
---------------------------------
  C      4.055706   -0.073371    0.001296
  C      2.833589   -0.006538   -0.001788
  C     -2.844896    0.019441   -0.004853
  C      1.413452    0.037492   -0.002626
  C      0.700746    1.295345   -0.002276
  C     -0.721463    1.219527   -0.003060
  C     -1.411403    0.007110   -0.004114
  C     -0.698475   -1.233396   -0.004423
  C      0.695638   -1.174525   -0.003765
  H     -1.303846    2.141153   -0.002844
  H      1.274517   -2.097895   -0.004026
  C      1.376832    2.533498   -0.001126
  H      2.469694    2.505632   -0.000730
  C      0.711306    3.877473   -0.000581
  H      0.041481    3.969632   -0.880471
  H      0.037166    3.966822    0.876259
  C      1.701380    5.049569    0.003759
  H      2.358533    4.962282    0.888281
  H      2.362997    4.965135   -0.877712
  C      1.013977    6.416298    0.004221
  H      0.370441    6.540985    0.892269
  H      0.374953    6.543854   -0.886675
  C     -1.466173   -2.538927   -0.005427
  H     -2.145358   -2.541094    0.867612
  H     -2.144360   -2.540372   -0.879243
  C     -0.640808   -3.828219   -0.005469
  H      0.023102   -3.849434   -0.889318
  H      0.022055   -3.850135    0.879151
  C     -1.515522   -5.087936   -0.006485
  H     -2.182461   -5.068245    0.875368
  H     -2.181282   -5.067647   -0.889215
  C     -0.702818   -6.385152   -0.006382
  H     -0.053167   -6.450604    0.883538
  H     -0.051837   -6.449911   -0.895380
  C     -4.060788    0.033376   -0.006353
  H     -5.133102    0.050110   -0.008357
  H      1.748939    7.237269    0.007413
  H     -1.357157   -7.271992   -0.007216
  C      8.290695   -0.349767    0.011455
  C      7.669171    0.904370    0.011023
  C      6.278250    1.001632    0.007668
  C      5.479338   -0.163533    0.004673
  C      6.117761   -1.424109    0.005135
  C      7.509230   -1.511054    0.008499
  H      9.380814   -0.421986    0.014080
  H      5.506311   -2.328412    0.002815
  H      8.273777    1.814555    0.013324
  H      7.988698   -2.492952    0.008817
  H      5.792544    1.979267    0.007327

 Total Charge           Charge          ....    0
 Multiplicity           Mult            ....    2
 Number of Electrons    NEL             ....  169
 Basis Dimension        Dim             ....  461

ORBITAL ENERGIES
----------------
                 SPIN UP ORBITALS
  NO   OCC          E(Eh)            E(eV)
   0   1.0000     -10.215271      -277.9717
   1   1.0000     -10.214542      -277.9518
   2   1.0000     -10.211702      -277.8745
   3   1.0000     -10.202657      -277.6284
   4   1.0000     -10.198420      -277.5131
   5   1.0000     -10.196430      -277.4590
   6   1.0000     -10.196194      -277.4525
   7   1.0000     -10.195179      -277.4249
   8   1.0000     -10.195130      -277.4236
   9   1.0000     -10.194463      -277.4054
  10   1.0000     -10.194288      -277.4007
  11   1.0000     -10.192579      -277.3542
  12   1.0000     -10.191613      -277.3279
  13   1.0000     -10.189801      -277.2786
  14   1.0000     -10.189093      -277.2593
  15   1.0000     -10.188435      -277.2414
  16   1.0000     -10.186838      -277.1980
  17   1.0000     -10.186456      -277.1876
  18   1.0000     -10.186032      -277.1760
  19   1.0000     -10.184407      -277.1318
  20   1.0000     -10.181553      -277.0541
  21   1.0000     -10.181367      -277.0491
  22   1.0000     -10.177389      -276.9408
  23   1.0000     -10.175459      -276.8883
  24   1.0000      -0.873940       -23.7811
  25   1.0000      -0.862456       -23.4686
  26   1.0000      -0.820100       -22.3161
  27   1.0000      -0.799080       -21.7441
  28   1.0000      -0.795887       -21.6572
  29   1.0000      -0.778068       -21.1723
  30   1.0000      -0.767741       -20.8913
  31   1.0000      -0.750220       -20.4145
  32   1.0000      -0.744646       -20.2628
  33   1.0000      -0.730347       -19.8738
  34   1.0000      -0.713548       -19.4166
  35   1.0000      -0.697697       -18.9853
  36   1.0000      -0.656859       -17.8741
  37   1.0000      -0.643835       -17.5196
  38   1.0000      -0.618021       -16.8172
  39   1.0000      -0.612652       -16.6711
  40   1.0000      -0.608105       -16.5474
  41   1.0000      -0.592663       -16.1272
  42   1.0000      -0.580357       -15.7923
  43   1.0000      -0.562105       -15.2957
  44   1.0000      -0.540741       -14.7143
  45   1.0000      -0.529283       -14.4025
  46   1.0000      -0.506752       -13.7894
  47   1.0000      -0.491831       -13.3834
  48   1.0000      -0.479901       -13.0588
  49   1.0000      -0.475999       -12.9526
  50   1.0000      -0.470372       -12.7995
  51   1.0000      -0.462595       -12.5879
  52   1.0000      -0.456808       -12.4304
  53   1.0000      -0.435912       -11.8618
  54   1.0000      -0.432322       -11.7641
  55   1.0000      -0.429423       -11.6852
  56   1.0000      -0.426180       -11.5969
  57   1.0000      -0.423390       -11.5210
  58   1.0000      -0.421615       -11.4727
  59   1.0000      -0.411828       -11.2064
  60   1.0000      -0.398686       -10.8488
  61   1.0000      -0.397983       -10.8297
  62   1.0000      -0.383880       -10.4459
  63   1.0000      -0.378666       -10.3040
  64   1.0000      -0.377050       -10.2601
  65   1.0000      -0.365290        -9.9400
  66   1.0000      -0.360981        -9.8228
  67   1.0000      -0.356478        -9.7003
  68   1.0000      -0.353697        -9.6246
  69   1.0000      -0.349648        -9.5144
  70   1.0000      -0.340423        -9.2634
  71   1.0000      -0.332954        -9.0601
  72   1.0000      -0.331480        -9.0200
  73   1.0000      -0.331256        -9.0139
  74   1.0000      -0.327519        -8.9123
  75   1.0000      -0.324162        -8.8209
  76   1.0000      -0.321282        -8.7425
  77   1.0000      -0.299663        -8.1542
  78   1.0000      -0.275122        -7.4865
  79   1.0000      -0.273308        -7.4371
  80   1.0000      -0.267420        -7.2769
  81   1.0000      -0.258372        -7.0307
  82   1.0000      -0.255337        -6.9481
  83   1.0000      -0.216695        -5.8966
  84   1.0000      -0.170829        -4.6485
  85   0.0000      -0.056621        -1.5407
  86   0.0000      -0.011557        -0.3145
  87   0.0000      -0.009785        -0.2663
  88   0.0000       0.013099         0.3564
  89   0.0000       0.041633         1.1329

                 SPIN DOWN ORBITALS
  NO   OCC          E(Eh)            E(eV)
   0   1.0000     -10.215622      -277.9812
   1   1.0000     -10.213334      -277.9190
   2   1.0000     -10.211180      -277.8603
   3   1.0000     -10.200878      -277.5800
   4   1.0000     -10.199252      -277.5358
   5   1.0000     -10.196054      -277.4487
   6   1.0000     -10.195822      -277.4424
   7   1.0000     -10.194927      -277.4181
   8   1.0000     -10.194626      -277.4099
   9   1.0000     -10.194276      -277.4004
  10   1.0000     -10.192100      -277.3411
  11   1.0000     -10.191390      -277.3218
  12   1.0000     -10.191222      -277.3172
  13   1.0000     -10.189107      -277.2597
  14   1.0000     -10.188909      -277.2543
  15   1.0000     -10.186661      -277.1931
  16   1.0000     -10.186657      -277.1930
  17   1.0000     -10.186575      -277.1908
  18   1.0000     -10.184368      -277.1307
  19   1.0000     -10.182733      -277.0863
  20   1.0000     -10.181550      -277.0541
  21   1.0000     -10.181367      -277.0491
  22   1.0000     -10.177397      -276.9410
  23   1.0000     -10.175460      -276.8884
  24   1.0000      -0.870631       -23.6911
  25   1.0000      -0.861994       -23.4561
  26   1.0000      -0.815217       -22.1832
  27   1.0000      -0.796380       -21.6706
  28   1.0000      -0.794684       -21.6244
  29   1.0000      -0.777220       -21.1492
  30   1.0000      -0.765731       -20.8366
  31   1.0000      -0.749864       -20.4048
  32   1.0000      -0.743530       -20.2325
  33   1.0000      -0.726477       -19.7684
  34   1.0000      -0.712765       -19.3953
  35   1.0000      -0.695510       -18.9258
  36   1.0000      -0.653837       -17.7918
  37   1.0000      -0.642612       -17.4864
  38   1.0000      -0.614371       -16.7179
  39   1.0000      -0.609823       -16.5941
  40   1.0000      -0.607871       -16.5410
  41   1.0000      -0.591764       -16.1027
  42   1.0000      -0.578753       -15.7487
  43   1.0000      -0.559670       -15.2294
  44   1.0000      -0.540194       -14.6994
  45   1.0000      -0.527999       -14.3676
  46   1.0000      -0.503564       -13.7027
  47   1.0000      -0.491018       -13.3613
  48   1.0000      -0.478656       -13.0249
  49   1.0000      -0.475049       -12.9267
  50   1.0000      -0.469529       -12.7765
  51   1.0000      -0.459201       -12.4955
  52   1.0000      -0.456600       -12.4247
  53   1.0000      -0.435299       -11.8451
  54   1.0000      -0.430504       -11.7146
  55   1.0000      -0.428177       -11.6513
  56   1.0000      -0.425015       -11.5653
  57   1.0000      -0.423285       -11.5182
  58   1.0000      -0.419000       -11.4016
  59   1.0000      -0.411352       -11.1935
  60   1.0000      -0.396911       -10.8005
  61   1.0000      -0.391148       -10.6437
  62   1.0000      -0.381234       -10.3739
  63   1.0000      -0.376387       -10.2420
  64   1.0000      -0.374440       -10.1890
  65   1.0000      -0.364167        -9.9095
  66   1.0000      -0.360534        -9.8106
  67   1.0000      -0.355640        -9.6774
  68   1.0000      -0.350724        -9.5437
  69   1.0000      -0.349480        -9.5098
  70   1.0000      -0.338201        -9.2029
  71   1.0000      -0.332430        -9.0459
  72   1.0000      -0.329884        -8.9766
  73   1.0000      -0.329011        -8.9528
  74   1.0000      -0.327177        -8.9029
  75   1.0000      -0.323401        -8.8002
  76   1.0000      -0.320638        -8.7250
  77   1.0000      -0.296851        -8.0777
  78   1.0000      -0.275090        -7.4856
  79   1.0000      -0.266998        -7.2654
  80   1.0000      -0.259969        -7.0741
  81   1.0000      -0.257365        -7.0033
  82   1.0000      -0.250538        -6.8175
  83   1.0000      -0.210250        -5.7212
  84   0.0000      -0.085892        -2.3372
  85   0.0000      -0.048579        -1.3219
  86   0.0000      -0.008916        -0.2426
  87   0.0000      -0.006425        -0.1748
  88   0.0000       0.029320         0.7978

MULLIKEN ATOMIC CHARGES AND SPIN POPULATIONS
--------------------------------------------
   0 C :    0.146643    0.099198
   1 C :    0.275500   -0.066086
   2 C :    0.626331    0.029367
   3 C :   -0.177399    0.223383
   4 C :    0.071763   -0.169436
   5 C :   -0.010781    0.219100
   6 C :   -0.022917   -0.110981
   7 C :   -0.076160    0.233630
   8 C :    0.007216   -0.118553
   9 H :   -0.049819   -0.009091
  10 H :   -0.054074    0.004302
  11 C :   -0.100748    0.694996
  12 H :   -0.025745   -0.030201
  13 C :    0.034273   -0.047664
  14 H :    0.029686    0.031175
  15 H :    0.029708    0.031047
  16 C :   -0.039643    0.002259
  17 H :    0.012443    0.000472
  18 H :    0.012450    0.000459
  19 C :    0.006047   -0.000178
  20 H :    0.017917    0.000152
  21 H :    0.017925    0.000152
  22 C :    0.043407   -0.018534
  23 H :    0.031953    0.009971
  24 H :    0.031955    0.009973
  25 C :   -0.036070    0.000864
  26 H :    0.016564    0.000170
  27 H :    0.016554    0.000170
  28 C :   -0.024193    0.000024
  29 H :    0.006188    0.000052
  30 H :    0.006186    0.000052
  31 C :    0.002997   -0.000080
  32 H :    0.017055    0.000023
  33 H :    0.017051    0.000023
  34 C :   -0.606306   -0.049782
  35 H :   -0.029316    0.001963
  36 H :    0.013412   -0.000200
  37 H :    0.012806   -0.000005
  38 C :    0.032693    0.028518
  39 C :    0.039891   -0.013619
  40 C :    0.025154    0.025983
  41 C :   -0.257568   -0.023079
  42 C :    0.030310    0.026065
  43 C :    0.040494   -0.013607
  44 H :   -0.027334   -0.001302
  45 H :   -0.040710   -0.001137
  46 H :   -0.027618    0.000535
  47 H :   -0.027248    0.000534
  48 H :   -0.038922   -0.001079
Sum of atomic charges         :   -0.0000000

LOEWDIN ATOMIC CHARGES AND SPIN POPULATIONS
-------------------------------------------
   0 C :   -0.021728    0.072750
   1 C :   -0.017348   -0.029649
   2 C :   -0.001100    0.013604
   3 C :   -0.038477    0.159762
   4 C :   -0.039842   -0.072407
   5 C :    0.010817    0.165011
   6 C :   -0.055001   -0.060893
   7 C :   -0.005303    0.172483
   8 C :   -0.008211   -0.064917
   9 H :    0.029453    0.000875
  10 H :    0.029730   -0.000460
  11 C :    0.012469    0.569822
  12 H :    0.021420    0.003363
  13 C :   -0.054458    0.005372
  14 H :    0.034642    0.024333
  15 H :    0.034611    0.024225
  16 C :   -0.046135    0.001155
  17 H :    0.025556    0.000300
  18 H :    0.025551    0.000293
  19 C :   -0.067630   -0.000043
  20 H :    0.025741    0.000244
  21 H :    0.025740    0.000245
  22 C :   -0.034879    0.002183
  23 H :    0.039748    0.007851
  24 H :    0.039750    0.007852
  25 C :   -0.043600    0.000149
  26 H :    0.024383    0.000053
  27 H :    0.024385    0.000053
  28 C :   -0.047002    0.000016
  29 H :    0.024186    0.000088
  30 H :    0.024186    0.000088
  31 C :   -0.067704   -0.000038
  32 H :    0.025140    0.000016
  33 H :    0.025139    0.000016
  34 C :   -0.051012   -0.039456
  35 H :    0.022628   -0.000077
  36 H :    0.028276   -0.000110
  37 H :    0.027489   -0.000007
  38 C :   -0.021965    0.022066
  39 C :   -0.024126   -0.008020
  40 C :   -0.002912    0.020081
  41 C :   -0.053371   -0.010473
  42 C :   -0.001494    0.020139
  43 C :   -0.024005   -0.008001
  44 H :    0.028060    0.000087
  45 H :    0.029940    0.000022
  46 H :    0.029316   -0.000036
  47 H :    0.029374   -0.000035
  48 H :    0.029572    0.000025

  Mayer bond orders larger than 0.100000
B(  0-C ,  1-C ) :   1.7155 B(  0-C , 41-C ) :   0.9325 B(  1-C ,  3-C ) :   0.8777
B(  1-C , 41-C ) :  -0.1817 B(  2-C ,  6-C ) :   0.9021 B(  2-C , 34-C ) :   2.1221
B(  3-C ,  4-C ) :   1.2779 B(  3-C ,  8-C ) :   1.4024 B(  4-C ,  5-C ) :   1.2855
B(  4-C , 11-C ) :   1.3830 B(  5-C ,  6-C ) :   1.4433 B(  5-C ,  9-H ) :   0.9176
B(  6-C ,  7-C ) :   1.3362 B(  7-C ,  8-C ) :   1.4214 B(  7-C , 22-C ) :   1.0929
B(  8-C , 10-H ) :   0.9212 B( 11-C , 12-H ) :   0.8994 B( 11-C , 13-C ) :   1.0840
B( 13-C , 14-H ) :   0.9115 B( 13-C , 15-H ) :   0.9114 B( 13-C , 16-C ) :   1.0715
B( 16-C , 17-H ) :   0.9438 B( 16-C , 18-H ) :   0.9438 B( 16-C , 19-C ) :   1.1066
B( 19-C , 20-H ) :   0.9653 B( 19-C , 21-H ) :   0.9653 B( 19-C , 36-H ) :   0.9608
B( 22-C , 23-H ) :   0.8964 B( 22-C , 24-H ) :   0.8964 B( 22-C , 25-C ) :   1.1040
B( 25-C , 26-H ) :   0.9293 B( 25-C , 27-H ) :   0.9293 B( 25-C , 28-C ) :   1.0750
B( 28-C , 29-H ) :   0.9410 B( 28-C , 30-H ) :   0.9410 B( 28-C , 31-C ) :   1.1060
B( 31-C , 32-H ) :   0.9662 B( 31-C , 33-H ) :   0.9662 B( 31-C , 37-H ) :   0.9617
B( 34-C , 35-H ) :   1.1184 B( 38-C , 39-C ) :   1.4430 B( 38-C , 43-C ) :   1.4428
B( 38-C , 44-H ) :   0.9432 B( 39-C , 40-C ) :   1.4714 B( 39-C , 46-H ) :   0.9378
B( 40-C , 41-C ) :   1.4369 B( 40-C , 48-H ) :   0.9404 B( 41-C , 42-C ) :   1.4391
B( 42-C , 43-C ) :   1.4724 B( 42-C , 45-H ) :   0.9398 B( 43-C , 47-H ) :   0.9378

FINAL SINGLE POINT ENERGY      -928.901720291552

DIPOLE MOMENT
-------------
                                X             Y             Z
Electronic contribution:     10.55465       2.01469       0.00403
Nuclear contribution   :    -10.39818      -1.99730      -0.00336
                        -----------------------------------------
Total Dipole Moment    :      0.15647       0.01739       0.00067
                        -----------------------------------------
Magnitude (a.u.)       :      0.15743
Magnitude (Debye)      :      0.40016

Rotational constants in cm-1:     0.006531     0.004288     0.002597
Rotational constants in MHz :   195.794338   128.564357    77.869077

CHEMICAL SHIELDING SUMMARY (ppm)  --  Orbital contribution
----------------------------------------------------------

  Nucleus  Element    Isotropic     Anisotropy
  -------  -------  ------------   ------------
      9       H           24.419         11.280
     10       H           24.486         12.557
     12       H           25.268         11.530
     14       H           28.975          4.382
     15       H           28.973          4.375
     17       H           29.641          6.495
     18       H           29.640          6.501
     20       H           30.310          7.949
     21       H           30.310          7.947
     23       H           28.754          5.535
     24       H           28.754          5.535
     26       H           29.835          4.680
     27       H           29.835          4.680
     29       H           29.912          6.473
     30       H           29.912          6.474
     32       H           30.312          7.757
     33       H           30.312          7.758
     35       H           28.260         10.720
     36       H           30.083         10.037
     37       H           30.110         10.278
     44       H           24.275          4.414
     45       H           24.029          7.640
     46       H           24.214          5.348
     47       H           24.209          5.198
     48       H           24.041          7.569

                             ****ORCA TERMINATED NORMALLY****
TOTAL RUN TIME: 0 days 1 hours 20 minutes 39 seconds 210 msec
