                         Program Version 5.0.4 -  RELEASE  -
|  1> ! B3LYP cc-pVDZ AUTOAUX
|  2> %pal nprocs 16 end
|  3> *XYZFile 0 2 opt.xyz
|  4> %EPRNMR
|  5>         GTENSOR   TRUE
|  6>         NUCLEI    = ALL H {SHIFT, AISO, ADIP, AORB}
|  7> END
|  8>
|  9>                          ****END OF INPUT****

CARTESIAN COORDINATES (ANGSTROEM)
---------------------------------
  C      4.055651   -0.073547    0.001259
  C      2.833542   -0.006600   -0.001853
  C     -2.844938    0.019403   -0.004605
  C      1.413420    0.037578   -0.002650
  C      0.700732    1.295437   -0.002274
  C     -0.721501    1.219563   -0.002939
  C     -1.411453    0.007143   -0.003953
  C     -0.698523   -1.233355   -0.004352
  C      0.695582   -1.174421   -0.003778
  H     -1.303965    2.141141   -0.002676
  H      1.274536   -2.097754   -0.004091
  C      1.376735    2.533606   -0.001170
  H      2.469590    2.505778   -0.000846
  C      0.711209    3.877604   -0.000569
  H      0.041247    3.969721   -0.880342
  H      0.037271    3.967005    0.876408
  C      1.701375    5.049653    0.003518
  H      2.358700    4.962416    0.887902
  H      2.362825    4.965169   -0.878056
  C      1.013980    6.416414    0.004035
  H      0.370653    6.541162    0.892218
  H      0.374821    6.543928   -0.886762
  C     -1.466096   -2.538946   -0.005338
  H     -2.145195   -2.541193    0.867755
  H     -2.144376   -2.540390   -0.879069
  C     -0.640631   -3.828188   -0.005524
  H      0.023196   -3.849353   -0.889420
  H      0.022302   -3.850153    0.879024
  C     -1.515380   -5.087922   -0.006538
  H     -2.182257   -5.068236    0.875347
  H     -2.181205   -5.067554   -0.889201
  C     -0.702663   -6.385165   -0.006558
  H     -0.052972   -6.450617    0.883324
  H     -0.051766   -6.449835   -0.895614
  C     -4.060832    0.033276   -0.006062
  H     -5.133143    0.050044   -0.008099
  H      1.748932    7.237402    0.007037
  H     -1.357003   -7.272006   -0.007390
  C      8.290611   -0.349909    0.011621
  C      7.669126    0.904242    0.011288
  C      6.278191    1.001489    0.007860
  C      5.479290   -0.163666    0.004675
  C      6.117697   -1.424276    0.005036
  C      7.509166   -1.511211    0.008484
  H      9.380725   -0.422104    0.014310
  H      5.506205   -2.328550    0.002590
  H      8.273734    1.814420    0.013750
  H      7.988600   -2.493123    0.008723
  H      5.792435    1.979098    0.007626

 Total Charge           Charge          ....    0
 Multiplicity           Mult            ....    2
 Number of Electrons    NEL             ....  169
 Basis Dimension        Dim             ....  461

ORBITAL ENERGIES
----------------
                 SPIN UP ORBITALS
  NO   OCC          E(Eh)            E(eV)
   0   1.0000     -10.215490      -277.9776
   1   1.0000     -10.214316      -277.9457
   2   1.0000     -10.211653      -277.8732
   3   1.0000     -10.202729      -277.6304
   4   1.0000     -10.198403      -277.5127
   5   1.0000     -10.196477      -277.4603
   6   1.0000     -10.196214      -277.4531
   7   1.0000     -10.195229      -277.4263
   8   1.0000     -10.195136      -277.4238
   9   1.0000     -10.194459      -277.4053
  10   1.0000     -10.194279      -277.4004
  11   1.0000     -10.192575      -277.3541
  12   1.0000     -10.191537      -277.3258
  13   1.0000     -10.189716      -277.2763
  14   1.0000     -10.189305      -277.2651
  15   1.0000     -10.188459      -277.2421
  16   1.0000     -10.186684      -277.1938
  17   1.0000     -10.186508      -277.1890
  18   1.0000     -10.186026      -277.1759
  19   1.0000     -10.184417      -277.1321
  20   1.0000     -10.181596      -277.0553
  21   1.0000     -10.181400      -277.0500
  22   1.0000     -10.177410      -276.9414
  23   1.0000     -10.175497      -276.8894
  24   1.0000      -0.873901       -23.7801
  25   1.0000      -0.862510       -23.4701
  26   1.0000      -0.820087       -22.3157
  27   1.0000      -0.799051       -21.7433
  28   1.0000      -0.795892       -21.6573
  29   1.0000      -0.778118       -21.1737
  30   1.0000      -0.767736       -20.8912
  31   1.0000      -0.750242       -20.4151
  32   1.0000      -0.744626       -20.2623
  33   1.0000      -0.730347       -19.8738
  34   1.0000      -0.713549       -19.4167
  35   1.0000      -0.697700       -18.9854
  36   1.0000      -0.656859       -17.8740
  37   1.0000      -0.643816       -17.5191
  38   1.0000      -0.618030       -16.8175
  39   1.0000      -0.612671       -16.6716
  40   1.0000      -0.608148       -16.5486
  41   1.0000      -0.592655       -16.1269
  42   1.0000      -0.580368       -15.7926
  43   1.0000      -0.562097       -15.2954
  44   1.0000      -0.540763       -14.7149
  45   1.0000      -0.529289       -14.4027
  46   1.0000      -0.506714       -13.7884
  47   1.0000      -0.491812       -13.3829
  48   1.0000      -0.479897       -13.0587
  49   1.0000      -0.476003       -12.9527
  50   1.0000      -0.470385       -12.7998
  51   1.0000      -0.462601       -12.5880
  52   1.0000      -0.456850       -12.4315
  53   1.0000      -0.435937       -11.8624
  54   1.0000      -0.432326       -11.7642
  55   1.0000      -0.429406       -11.6847
  56   1.0000      -0.426181       -11.5970
  57   1.0000      -0.423413       -11.5216
  58   1.0000      -0.421621       -11.4729
  59   1.0000      -0.411823       -11.2063
  60   1.0000      -0.398682       -10.8487
  61   1.0000      -0.397972       -10.8294
  62   1.0000      -0.383905       -10.4466
  63   1.0000      -0.378650       -10.3036
  64   1.0000      -0.377066       -10.2605
  65   1.0000      -0.365289        -9.9400
  66   1.0000      -0.360997        -9.8232
  67   1.0000      -0.356475        -9.7002
  68   1.0000      -0.353695        -9.6245
  69   1.0000      -0.349684        -9.5154
  70   1.0000      -0.340420        -9.2633
  71   1.0000      -0.332960        -9.0603
  72   1.0000      -0.331463        -9.0196
  73   1.0000      -0.331265        -9.0142
  74   1.0000      -0.327530        -8.9126
  75   1.0000      -0.324171        -8.8211
  76   1.0000      -0.321296        -8.7429
  77   1.0000      -0.299683        -8.1548
  78   1.0000      -0.275103        -7.4859
  79   1.0000      -0.273295        -7.4367
  80   1.0000      -0.267436        -7.2773
  81   1.0000      -0.258392        -7.0312
  82   1.0000      -0.255329        -6.9479
  83   1.0000      -0.216697        -5.8966
  84   1.0000      -0.170819        -4.6482
  85   0.0000      -0.056615        -1.5406
  86   0.0000      -0.011566        -0.3147
  87   0.0000      -0.009812        -0.2670
  88   0.0000       0.013123         0.3571
  89   0.0000       0.041640         1.1331

                 SPIN DOWN ORBITALS
  NO   OCC          E(Eh)            E(eV)
   0   1.0000     -10.215840      -277.9871
   1   1.0000     -10.213284      -277.9176
   2   1.0000     -10.210956      -277.8542
   3   1.0000     -10.200859      -277.5795
   4   1.0000     -10.199326      -277.5378
   5   1.0000     -10.196101      -277.4500
   6   1.0000     -10.195842      -277.4430
   7   1.0000     -10.194928      -277.4181
   8   1.0000     -10.194618      -277.4097
   9   1.0000     -10.194276      -277.4004
  10   1.0000     -10.192151      -277.3425
  11   1.0000     -10.191303      -277.3195
  12   1.0000     -10.191150      -277.3153
  13   1.0000     -10.189131      -277.2604
  14   1.0000     -10.188802      -277.2514
  15   1.0000     -10.186741      -277.1953
  16   1.0000     -10.186709      -277.1944
  17   1.0000     -10.186650      -277.1928
  18   1.0000     -10.184378      -277.1310
  19   1.0000     -10.182727      -277.0861
  20   1.0000     -10.181594      -277.0553
  21   1.0000     -10.181400      -277.0500
  22   1.0000     -10.177417      -276.9416
  23   1.0000     -10.175499      -276.8894
  24   1.0000      -0.870593       -23.6901
  25   1.0000      -0.862047       -23.4575
  26   1.0000      -0.815200       -22.1827
  27   1.0000      -0.796355       -21.6699
  28   1.0000      -0.794691       -21.6246
  29   1.0000      -0.777270       -21.1506
  30   1.0000      -0.765724       -20.8364
  31   1.0000      -0.749886       -20.4054
  32   1.0000      -0.743508       -20.2319
  33   1.0000      -0.726478       -19.7685
  34   1.0000      -0.712762       -19.3952
  35   1.0000      -0.695512       -18.9258
  36   1.0000      -0.653838       -17.7918
  37   1.0000      -0.642595       -17.4859
  38   1.0000      -0.614387       -16.7183
  39   1.0000      -0.609831       -16.5943
  40   1.0000      -0.607914       -16.5422
  41   1.0000      -0.591757       -16.1025
  42   1.0000      -0.578765       -15.7490
  43   1.0000      -0.559659       -15.2291
  44   1.0000      -0.540219       -14.7001
  45   1.0000      -0.528002       -14.3677
  46   1.0000      -0.503527       -13.7017
  47   1.0000      -0.490999       -13.3608
  48   1.0000      -0.478658       -13.0249
  49   1.0000      -0.475047       -12.9267
  50   1.0000      -0.469542       -12.7769
  51   1.0000      -0.459207       -12.4957
  52   1.0000      -0.456642       -12.4259
  53   1.0000      -0.435331       -11.8459
  54   1.0000      -0.430491       -11.7143
  55   1.0000      -0.428170       -11.6511
  56   1.0000      -0.425018       -11.5653
  57   1.0000      -0.423307       -11.5188
  58   1.0000      -0.419009       -11.4018
  59   1.0000      -0.411346       -11.1933
  60   1.0000      -0.396900       -10.8002
  61   1.0000      -0.391146       -10.6436
  62   1.0000      -0.381270       -10.3749
  63   1.0000      -0.376370       -10.2416
  64   1.0000      -0.374446       -10.1892
  65   1.0000      -0.364167        -9.9095
  66   1.0000      -0.360552        -9.8111
  67   1.0000      -0.355635        -9.6773
  68   1.0000      -0.350722        -9.5436
  69   1.0000      -0.349516        -9.5108
  70   1.0000      -0.338200        -9.2029
  71   1.0000      -0.332435        -9.0460
  72   1.0000      -0.329876        -8.9764
  73   1.0000      -0.329012        -8.9529
  74   1.0000      -0.327188        -8.9032
  75   1.0000      -0.323409        -8.8004
  76   1.0000      -0.320649        -8.7253
  77   1.0000      -0.296871        -8.0783
  78   1.0000      -0.275070        -7.4850
  79   1.0000      -0.267011        -7.2658
  80   1.0000      -0.259951        -7.0736
  81   1.0000      -0.257385        -7.0038
  82   1.0000      -0.250530        -6.8173
  83   1.0000      -0.210244        -5.7210
  84   0.0000      -0.085884        -2.3370
  85   0.0000      -0.048577        -1.3218
  86   0.0000      -0.008944        -0.2434
  87   0.0000      -0.006431        -0.1750
  88   0.0000       0.029342         0.7984

MULLIKEN ATOMIC CHARGES AND SPIN POPULATIONS
--------------------------------------------
   0 C :    0.146073    0.099066
   1 C :    0.276059   -0.065956
   2 C :    0.626382    0.029181
   3 C :   -0.177230    0.223276
   4 C :    0.071792   -0.169392
   5 C :   -0.010855    0.219038
   6 C :   -0.022883   -0.110869
   7 C :   -0.076246    0.233535
   8 C :    0.007255   -0.118481
   9 H :   -0.049821   -0.009082
  10 H :   -0.054093    0.004295
  11 C :   -0.100763    0.695036
  12 H :   -0.025754   -0.030206
  13 C :    0.034271   -0.047673
  14 H :    0.029688    0.031175
  15 H :    0.029710    0.031049
  16 C :   -0.039645    0.002259
  17 H :    0.012444    0.000472
  18 H :    0.012450    0.000460
  19 C :    0.006036   -0.000178
  20 H :    0.017919    0.000152
  21 H :    0.017927    0.000152
  22 C :    0.043394   -0.018516
  23 H :    0.031958    0.009968
  24 H :    0.031960    0.009970
  25 C :   -0.036077    0.000863
  26 H :    0.016571    0.000170
  27 H :    0.016562    0.000170
  28 C :   -0.024206    0.000024
  29 H :    0.006189    0.000052
  30 H :    0.006188    0.000052
  31 C :    0.002991   -0.000080
  32 H :    0.017060    0.000023
  33 H :    0.017056    0.000023
  34 C :   -0.606357   -0.049610
  35 H :   -0.029318    0.001949
  36 H :    0.013412   -0.000200
  37 H :    0.012811   -0.000005
  38 C :    0.032706    0.028461
  39 C :    0.039930   -0.013569
  40 C :    0.025150    0.025930
  41 C :   -0.257761   -0.022997
  42 C :    0.030334    0.026011
  43 C :    0.040535   -0.013556
  44 H :   -0.027336   -0.001297
  45 H :   -0.040696   -0.001132
  46 H :   -0.027616    0.000531
  47 H :   -0.027249    0.000530
  48 H :   -0.038911   -0.001073
Sum of atomic charges         :   -0.0000000

LOEWDIN ATOMIC CHARGES AND SPIN POPULATIONS
-------------------------------------------
   0 C :   -0.022045    0.072687
   1 C :   -0.017047   -0.029590
   2 C :   -0.001062    0.013506
   3 C :   -0.038364    0.159715
   4 C :   -0.039841   -0.072386
   5 C :    0.010787    0.164978
   6 C :   -0.054986   -0.060847
   7 C :   -0.005363    0.172428
   8 C :   -0.008186   -0.064875
   9 H :    0.029450    0.000879
  10 H :    0.029723   -0.000461
  11 C :    0.012464    0.569853
  12 H :    0.021418    0.003362
  13 C :   -0.054457    0.005367
  14 H :    0.034640    0.024332
  15 H :    0.034611    0.024226
  16 C :   -0.046128    0.001155
  17 H :    0.025553    0.000300
  18 H :    0.025549    0.000293
  19 C :   -0.067634   -0.000043
  20 H :    0.025740    0.000244
  21 H :    0.025740    0.000245
  22 C :   -0.034892    0.002188
  23 H :    0.039752    0.007849
  24 H :    0.039752    0.007850
  25 C :   -0.043600    0.000149
  26 H :    0.024384    0.000053
  27 H :    0.024386    0.000053
  28 C :   -0.046996    0.000016
  29 H :    0.024184    0.000088
  30 H :    0.024183    0.000088
  31 C :   -0.067707   -0.000038
  32 H :    0.025141    0.000016
  33 H :    0.025140    0.000016
  34 C :   -0.051050   -0.039341
  35 H :    0.022626   -0.000082
  36 H :    0.028276   -0.000110
  37 H :    0.027491   -0.000007
  38 C :   -0.021955    0.022030
  39 C :   -0.024097   -0.007989
  40 C :   -0.002917    0.020046
  41 C :   -0.053475   -0.010442
  42 C :   -0.001484    0.020103
  43 C :   -0.023976   -0.007970
  44 H :    0.028059    0.000089
  45 H :    0.029943    0.000023
  46 H :    0.029318   -0.000037
  47 H :    0.029375   -0.000036
  48 H :    0.029578    0.000026

  Mayer bond orders larger than 0.100000
B(  0-C ,  1-C ) :   1.7155 B(  0-C , 41-C ) :   0.9325 B(  1-C ,  3-C ) :   0.8778
B(  1-C , 41-C ) :  -0.1817 B(  2-C ,  6-C ) :   0.9021 B(  2-C , 34-C ) :   2.1221
B(  3-C ,  4-C ) :   1.2779 B(  3-C ,  8-C ) :   1.4024 B(  4-C ,  5-C ) :   1.2855
B(  4-C , 11-C ) :   1.3829 B(  5-C ,  6-C ) :   1.4433 B(  5-C ,  9-H ) :   0.9177
B(  6-C ,  7-C ) :   1.3362 B(  7-C ,  8-C ) :   1.4214 B(  7-C , 22-C ) :   1.0929
B(  8-C , 10-H ) :   0.9212 B( 11-C , 12-H ) :   0.8994 B( 11-C , 13-C ) :   1.0840
B( 13-C , 14-H ) :   0.9115 B( 13-C , 15-H ) :   0.9115 B( 13-C , 16-C ) :   1.0715
B( 16-C , 17-H ) :   0.9438 B( 16-C , 18-H ) :   0.9438 B( 16-C , 19-C ) :   1.1066
B( 19-C , 20-H ) :   0.9653 B( 19-C , 21-H ) :   0.9653 B( 19-C , 36-H ) :   0.9608
B( 22-C , 23-H ) :   0.8964 B( 22-C , 24-H ) :   0.8964 B( 22-C , 25-C ) :   1.1040
B( 25-C , 26-H ) :   0.9293 B( 25-C , 27-H ) :   0.9293 B( 25-C , 28-C ) :   1.0749
B( 28-C , 29-H ) :   0.9410 B( 28-C , 30-H ) :   0.9410 B( 28-C , 31-C ) :   1.1060
B( 31-C , 32-H ) :   0.9662 B( 31-C , 33-H ) :   0.9662 B( 31-C , 37-H ) :   0.9617
B( 34-C , 35-H ) :   1.1184 B( 38-C , 39-C ) :   1.4430 B( 38-C , 43-C ) :   1.4428
B( 38-C , 44-H ) :   0.9432 B( 39-C , 40-C ) :   1.4714 B( 39-C , 46-H ) :   0.9378
B( 40-C , 41-C ) :   1.4369 B( 40-C , 48-H ) :   0.9404 B( 41-C , 42-C ) :   1.4390
B( 42-C , 43-C ) :   1.4724 B( 42-C , 45-H ) :   0.9398 B( 43-C , 47-H ) :   0.9378

FINAL SINGLE POINT ENERGY      -928.901726524584

DIPOLE MOMENT
-------------
                                X             Y             Z
Electronic contribution:     10.55364       2.01401       0.00512
Nuclear contribution   :    -10.39741      -1.99660      -0.00444
                        -----------------------------------------
Total Dipole Moment    :      0.15623       0.01742       0.00067
                        -----------------------------------------
Magnitude (a.u.)       :      0.15720
Magnitude (Debye)      :      0.39957

Rotational constants in cm-1:     0.006531     0.004289     0.002597
Rotational constants in MHz :   195.785594   128.568523    77.869221

CHEMICAL SHIELDING SUMMARY (ppm)  --  Orbital contribution
----------------------------------------------------------

  Nucleus  Element    Isotropic     Anisotropy
  -------  -------  ------------   ------------
      9       H           24.423         11.282
     10       H           24.499         12.526
     12       H           25.275         11.512
     14       H           28.979          4.378
     15       H           28.978          4.373
     17       H           29.644          6.495
     18       H           29.643          6.501
     20       H           30.312          7.946
     21       H           30.312          7.946
     23       H           28.758          5.534
     24       H           28.757          5.534
     26       H           29.840          4.677
     27       H           29.840          4.678
     29       H           29.913          6.472
     30       H           29.913          6.473
     32       H           30.313          7.760
     33       H           30.313          7.759
     35       H           28.262         10.716
     36       H           30.084         10.038
     37       H           30.109         10.279
     44       H           24.264          4.423
     45       H           24.038          7.641
     46       H           24.205          5.358
     47       H           24.201          5.207
     48       H           24.048          7.572

                             ****ORCA TERMINATED NORMALLY****
TOTAL RUN TIME: 0 days 1 hours 20 minutes 32 seconds 294 msec
