                         Program Version 5.0.4 -  RELEASE  -
|  1> ! B3LYP cc-pVDZ AUTOAUX
|  2> %pal nprocs 16 end
|  3> *XYZFile 0 2 opt.xyz
|  4> %EPRNMR
|  5>         GTENSOR   TRUE
|  6>         NUCLEI    = ALL H {SHIFT, AISO, ADIP, AORB}
|  7>         ORI       GIAO
|  8> END
|  9>
| 10>                          ****END OF INPUT****

CARTESIAN COORDINATES (ANGSTROEM)
---------------------------------
  C      4.055651   -0.073547    0.001259
  C      2.833542   -0.006600   -0.001853
  C     -2.844938    0.019403   -0.004605
  C      1.413420    0.037578   -0.002650
  C      0.700732    1.295437   -0.002274
  C     -0.721501    1.219563   -0.002939
  C     -1.411453    0.007143   -0.003953
  C     -0.698523   -1.233355   -0.004352
  C      0.695582   -1.174421   -0.003778
  H     -1.303965    2.141141   -0.002676
  H      1.274536   -2.097754   -0.004091
  C      1.376735    2.533606   -0.001170
  H      2.469590    2.505778   -0.000846
  C      0.711209    3.877604   -0.000569
  H      0.041247    3.969721   -0.880342
  H      0.037271    3.967005    0.876408
  C      1.701375    5.049653    0.003518
  H      2.358700    4.962416    0.887902
  H      2.362825    4.965169   -0.878056
  C      1.013980    6.416414    0.004035
  H      0.370653    6.541162    0.892218
  H      0.374821    6.543928   -0.886762
  C     -1.466096   -2.538946   -0.005338
  H     -2.145195   -2.541193    0.867755
  H     -2.144376   -2.540390   -0.879069
  C     -0.640631   -3.828188   -0.005524
  H      0.023196   -3.849353   -0.889420
  H      0.022302   -3.850153    0.879024
  C     -1.515380   -5.087922   -0.006538
  H     -2.182257   -5.068236    0.875347
  H     -2.181205   -5.067554   -0.889201
  C     -0.702663   -6.385165   -0.006558
  H     -0.052972   -6.450617    0.883324
  H     -0.051766   -6.449835   -0.895614
  C     -4.060832    0.033276   -0.006062
  H     -5.133143    0.050044   -0.008099
  H      1.748932    7.237402    0.007037
  H     -1.357003   -7.272006   -0.007390
  C      8.290611   -0.349909    0.011621
  C      7.669126    0.904242    0.011288
  C      6.278191    1.001489    0.007860
  C      5.479290   -0.163666    0.004675
  C      6.117697   -1.424276    0.005036
  C      7.509166   -1.511211    0.008484
  H      9.380725   -0.422104    0.014310
  H      5.506205   -2.328550    0.002590
  H      8.273734    1.814420    0.013750
  H      7.988600   -2.493123    0.008723
  H      5.792435    1.979098    0.007626

 Total Charge           Charge          ....    0
 Multiplicity           Mult            ....    2
 Number of Electrons    NEL             ....  169
 Basis Dimension        Dim             ....  461

ORBITAL ENERGIES
----------------
                 SPIN UP ORBITALS
  NO   OCC          E(Eh)            E(eV)
   0   1.0000     -10.215350      -277.9738
   1   1.0000     -10.214441      -277.9491
   2   1.0000     -10.211687      -277.8741
   3   1.0000     -10.202651      -277.6282
   4   1.0000     -10.198396      -277.5125
   5   1.0000     -10.196457      -277.4597
   6   1.0000     -10.196212      -277.4530
   7   1.0000     -10.195170      -277.4247
   8   1.0000     -10.195122      -277.4234
   9   1.0000     -10.194460      -277.4054
  10   1.0000     -10.194282      -277.4005
  11   1.0000     -10.192569      -277.3539
  12   1.0000     -10.191594      -277.3274
  13   1.0000     -10.189746      -277.2771
  14   1.0000     -10.189152      -277.2609
  15   1.0000     -10.188439      -277.2415
  16   1.0000     -10.186766      -277.1960
  17   1.0000     -10.186461      -277.1877
  18   1.0000     -10.186056      -277.1767
  19   1.0000     -10.184406      -277.1318
  20   1.0000     -10.181551      -277.0541
  21   1.0000     -10.181363      -277.0490
  22   1.0000     -10.177385      -276.9407
  23   1.0000     -10.175455      -276.8882
  24   1.0000      -0.873913       -23.7804
  25   1.0000      -0.862475       -23.4691
  26   1.0000      -0.820088       -22.3157
  27   1.0000      -0.799063       -21.7436
  28   1.0000      -0.795880       -21.6570
  29   1.0000      -0.778081       -21.1727
  30   1.0000      -0.767727       -20.8909
  31   1.0000      -0.750230       -20.4148
  32   1.0000      -0.744638       -20.2626
  33   1.0000      -0.730343       -19.8736
  34   1.0000      -0.713542       -19.4165
  35   1.0000      -0.697690       -18.9851
  36   1.0000      -0.656854       -17.8739
  37   1.0000      -0.643821       -17.5192
  38   1.0000      -0.618020       -16.8172
  39   1.0000      -0.612653       -16.6711
  40   1.0000      -0.608122       -16.5478
  41   1.0000      -0.592656       -16.1270
  42   1.0000      -0.580361       -15.7924
  43   1.0000      -0.562099       -15.2955
  44   1.0000      -0.540748       -14.7145
  45   1.0000      -0.529287       -14.4026
  46   1.0000      -0.506728       -13.7888
  47   1.0000      -0.491826       -13.3833
  48   1.0000      -0.479892       -13.0585
  49   1.0000      -0.475995       -12.9525
  50   1.0000      -0.470369       -12.7994
  51   1.0000      -0.462597       -12.5879
  52   1.0000      -0.456822       -12.4308
  53   1.0000      -0.435918       -11.8619
  54   1.0000      -0.432319       -11.7640
  55   1.0000      -0.429402       -11.6846
  56   1.0000      -0.426173       -11.5968
  57   1.0000      -0.423402       -11.5213
  58   1.0000      -0.421611       -11.4726
  59   1.0000      -0.411817       -11.2061
  60   1.0000      -0.398683       -10.8487
  61   1.0000      -0.397970       -10.8293
  62   1.0000      -0.383886       -10.4461
  63   1.0000      -0.378650       -10.3036
  64   1.0000      -0.377052       -10.2601
  65   1.0000      -0.365281        -9.9398
  66   1.0000      -0.360982        -9.8228
  67   1.0000      -0.356468        -9.7000
  68   1.0000      -0.353692        -9.6244
  69   1.0000      -0.349663        -9.5148
  70   1.0000      -0.340415        -9.2632
  71   1.0000      -0.332954        -9.0601
  72   1.0000      -0.331471        -9.0198
  73   1.0000      -0.331262        -9.0141
  74   1.0000      -0.327518        -8.9122
  75   1.0000      -0.324154        -8.8207
  76   1.0000      -0.321286        -8.7426
  77   1.0000      -0.299667        -8.1544
  78   1.0000      -0.275123        -7.4865
  79   1.0000      -0.273295        -7.4367
  80   1.0000      -0.267416        -7.2768
  81   1.0000      -0.258380        -7.0309
  82   1.0000      -0.255333        -6.9480
  83   1.0000      -0.216692        -5.8965
  84   1.0000      -0.170819        -4.6482
  85   0.0000      -0.056616        -1.5406
  86   0.0000      -0.011557        -0.3145
  87   0.0000      -0.009797        -0.2666
  88   0.0000       0.013118         0.3570
  89   0.0000       0.041638         1.1330

                 SPIN DOWN ORBITALS
  NO   OCC          E(Eh)            E(eV)
   0   1.0000     -10.215698      -277.9833
   1   1.0000     -10.213314      -277.9184
   2   1.0000     -10.211085      -277.8577
   3   1.0000     -10.200850      -277.5792
   4   1.0000     -10.199253      -277.5358
   5   1.0000     -10.196084      -277.4495
   6   1.0000     -10.195842      -277.4430
   7   1.0000     -10.194921      -277.4179
   8   1.0000     -10.194620      -277.4097
   9   1.0000     -10.194270      -277.4002
  10   1.0000     -10.192096      -277.3410
  11   1.0000     -10.191331      -277.3202
  12   1.0000     -10.191213      -277.3170
  13   1.0000     -10.189111      -277.2598
  14   1.0000     -10.188838      -277.2524
  15   1.0000     -10.186674      -277.1935
  16   1.0000     -10.186662      -277.1932
  17   1.0000     -10.186633      -277.1924
  18   1.0000     -10.184367      -277.1307
  19   1.0000     -10.182718      -277.0858
  20   1.0000     -10.181548      -277.0540
  21   1.0000     -10.181362      -277.0489
  22   1.0000     -10.177393      -276.9409
  23   1.0000     -10.175457      -276.8883
  24   1.0000      -0.870606       -23.6904
  25   1.0000      -0.862014       -23.4566
  26   1.0000      -0.815203       -22.1828
  27   1.0000      -0.796365       -21.6702
  28   1.0000      -0.794678       -21.6243
  29   1.0000      -0.777236       -21.1497
  30   1.0000      -0.765717       -20.8362
  31   1.0000      -0.749874       -20.4051
  32   1.0000      -0.743521       -20.2322
  33   1.0000      -0.726470       -19.7682
  34   1.0000      -0.712757       -19.3951
  35   1.0000      -0.695502       -18.9256
  36   1.0000      -0.653832       -17.7917
  37   1.0000      -0.642599       -17.4860
  38   1.0000      -0.614372       -16.7179
  39   1.0000      -0.609820       -16.5941
  40   1.0000      -0.607887       -16.5415
  41   1.0000      -0.591759       -16.1026
  42   1.0000      -0.578756       -15.7488
  43   1.0000      -0.559661       -15.2292
  44   1.0000      -0.540202       -14.6996
  45   1.0000      -0.528000       -14.3676
  46   1.0000      -0.503541       -13.7020
  47   1.0000      -0.491012       -13.3611
  48   1.0000      -0.478650       -13.0247
  49   1.0000      -0.475043       -12.9266
  50   1.0000      -0.469527       -12.7765
  51   1.0000      -0.459201       -12.4955
  52   1.0000      -0.456615       -12.4251
  53   1.0000      -0.435308       -11.8453
  54   1.0000      -0.430492       -11.7143
  55   1.0000      -0.428162       -11.6509
  56   1.0000      -0.425009       -11.5651
  57   1.0000      -0.423296       -11.5185
  58   1.0000      -0.419000       -11.4016
  59   1.0000      -0.411341       -11.1932
  60   1.0000      -0.396898       -10.8002
  61   1.0000      -0.391144       -10.6436
  62   1.0000      -0.381247       -10.3742
  63   1.0000      -0.376370       -10.2415
  64   1.0000      -0.374440       -10.1890
  65   1.0000      -0.364159        -9.9093
  66   1.0000      -0.360537        -9.8107
  67   1.0000      -0.355629        -9.6772
  68   1.0000      -0.350720        -9.5436
  69   1.0000      -0.349495        -9.5103
  70   1.0000      -0.338193        -9.2027
  71   1.0000      -0.332430        -9.0459
  72   1.0000      -0.329882        -8.9765
  73   1.0000      -0.329012        -8.9529
  74   1.0000      -0.327175        -8.9029
  75   1.0000      -0.323393        -8.8000
  76   1.0000      -0.320641        -8.7251
  77   1.0000      -0.296858        -8.0779
  78   1.0000      -0.275089        -7.4856
  79   1.0000      -0.266994        -7.2653
  80   1.0000      -0.259950        -7.0736
  81   1.0000      -0.257375        -7.0035
  82   1.0000      -0.250532        -6.8173
  83   1.0000      -0.210240        -5.7209
  84   0.0000      -0.085882        -2.3370
  85   0.0000      -0.048571        -1.3217
  86   0.0000      -0.008930        -0.2430
  87   0.0000      -0.006425        -0.1748
  88   0.0000       0.029339         0.7984

MULLIKEN ATOMIC CHARGES AND SPIN POPULATIONS
--------------------------------------------
   0 C :    0.146649    0.098924
   1 C :    0.275540   -0.065807
   2 C :    0.626304    0.028982
   3 C :   -0.177432    0.223142
   4 C :    0.071817   -0.169341
   5 C :   -0.010745    0.218969
   6 C :   -0.022963   -0.110744
   7 C :   -0.076108    0.233436
   8 C :    0.007218   -0.118410
   9 H :   -0.049834   -0.009073
  10 H :   -0.054083    0.004289
  11 C :   -0.100767    0.695079
  12 H :   -0.025752   -0.030211
  13 C :    0.034294   -0.047684
  14 H :    0.029681    0.031178
  15 H :    0.029703    0.031052
  16 C :   -0.039642    0.002260
  17 H :    0.012440    0.000472
  18 H :    0.012447    0.000459
  19 C :    0.006060   -0.000178
  20 H :    0.017912    0.000152
  21 H :    0.017920    0.000152
  22 C :    0.043423   -0.018496
  23 H :    0.031942    0.009965
  24 H :    0.031944    0.009967
  25 C :   -0.036032    0.000861
  26 H :    0.016555    0.000170
  27 H :    0.016546    0.000170
  28 C :   -0.024187    0.000024
  29 H :    0.006177    0.000052
  30 H :    0.006175    0.000052
  31 C :    0.003028   -0.000080
  32 H :    0.017048    0.000023
  33 H :    0.017044    0.000023
  34 C :   -0.606321   -0.049445
  35 H :   -0.029309    0.001937
  36 H :    0.013405   -0.000200
  37 H :    0.012797   -0.000005
  38 C :    0.032715    0.028408
  39 C :    0.039900   -0.013520
  40 C :    0.025121    0.025880
  41 C :   -0.257577   -0.022904
  42 C :    0.030281    0.025961
  43 C :    0.040494   -0.013507
  44 H :   -0.027339   -0.001292
  45 H :   -0.040701   -0.001127
  46 H :   -0.027619    0.000527
  47 H :   -0.027248    0.000526
  48 H :   -0.038920   -0.001069
Sum of atomic charges         :    0.0000000

LOEWDIN ATOMIC CHARGES AND SPIN POPULATIONS
-------------------------------------------
   0 C :   -0.021691    0.072631
   1 C :   -0.017371   -0.029537
   2 C :   -0.001120    0.013416
   3 C :   -0.038496    0.159669
   4 C :   -0.039829   -0.072368
   5 C :    0.010853    0.164941
   6 C :   -0.055033   -0.060803
   7 C :   -0.005274    0.172376
   8 C :   -0.008213   -0.064837
   9 H :    0.029444    0.000882
  10 H :    0.029725   -0.000463
  11 C :    0.012466    0.569891
  12 H :    0.021414    0.003362
  13 C :   -0.054443    0.005364
  14 H :    0.034636    0.024333
  15 H :    0.034607    0.024228
  16 C :   -0.046127    0.001155
  17 H :    0.025551    0.000300
  18 H :    0.025547    0.000293
  19 C :   -0.067620   -0.000043
  20 H :    0.025736    0.000244
  21 H :    0.025736    0.000245
  22 C :   -0.034871    0.002192
  23 H :    0.039742    0.007847
  24 H :    0.039743    0.007849
  25 C :   -0.043575    0.000148
  26 H :    0.024376    0.000053
  27 H :    0.024378    0.000053
  28 C :   -0.046985    0.000017
  29 H :    0.024177    0.000088
  30 H :    0.024176    0.000088
  31 C :   -0.067686   -0.000038
  32 H :    0.025134    0.000016
  33 H :    0.025133    0.000016
  34 C :   -0.051020   -0.039238
  35 H :    0.022633   -0.000087
  36 H :    0.028272   -0.000110
  37 H :    0.027483   -0.000007
  38 C :   -0.021954    0.021997
  39 C :   -0.024120   -0.007961
  40 C :   -0.002927    0.020014
  41 C :   -0.053349   -0.010412
  42 C :   -0.001511    0.020071
  43 C :   -0.024008   -0.007942
  44 H :    0.028056    0.000090
  45 H :    0.029941    0.000024
  46 H :    0.029316   -0.000038
  47 H :    0.029374   -0.000037
  48 H :    0.029574    0.000028

  Mayer bond orders larger than 0.100000
B(  0-C ,  1-C ) :   1.7155 B(  0-C , 41-C ) :   0.9325 B(  1-C ,  3-C ) :   0.8777
B(  1-C , 41-C ) :  -0.1817 B(  2-C ,  6-C ) :   0.9021 B(  2-C , 34-C ) :   2.1221
B(  3-C ,  4-C ) :   1.2780 B(  3-C ,  8-C ) :   1.4024 B(  4-C ,  5-C ) :   1.2855
B(  4-C , 11-C ) :   1.3829 B(  5-C ,  6-C ) :   1.4433 B(  5-C ,  9-H ) :   0.9176
B(  6-C ,  7-C ) :   1.3362 B(  7-C ,  8-C ) :   1.4214 B(  7-C , 22-C ) :   1.0929
B(  8-C , 10-H ) :   0.9212 B( 11-C , 12-H ) :   0.8994 B( 11-C , 13-C ) :   1.0840
B( 13-C , 14-H ) :   0.9115 B( 13-C , 15-H ) :   0.9115 B( 13-C , 16-C ) :   1.0715
B( 16-C , 17-H ) :   0.9438 B( 16-C , 18-H ) :   0.9438 B( 16-C , 19-C ) :   1.1066
B( 19-C , 20-H ) :   0.9653 B( 19-C , 21-H ) :   0.9653 B( 19-C , 36-H ) :   0.9608
B( 22-C , 23-H ) :   0.8964 B( 22-C , 24-H ) :   0.8964 B( 22-C , 25-C ) :   1.1040
B( 25-C , 26-H ) :   0.9293 B( 25-C , 27-H ) :   0.9293 B( 25-C , 28-C ) :   1.0749
B( 28-C , 29-H ) :   0.9410 B( 28-C , 30-H ) :   0.9410 B( 28-C , 31-C ) :   1.1060
B( 31-C , 32-H ) :   0.9662 B( 31-C , 33-H ) :   0.9662 B( 31-C , 37-H ) :   0.9617
B( 34-C , 35-H ) :   1.1184 B( 38-C , 39-C ) :   1.4430 B( 38-C , 43-C ) :   1.4428
B( 38-C , 44-H ) :   0.9432 B( 39-C , 40-C ) :   1.4714 B( 39-C , 46-H ) :   0.9378
B( 40-C , 41-C ) :   1.4369 B( 40-C , 48-H ) :   0.9404 B( 41-C , 42-C ) :   1.4390
B( 42-C , 43-C ) :   1.4724 B( 42-C , 45-H ) :   0.9398 B( 43-C , 47-H ) :   0.9378

FINAL SINGLE POINT ENERGY      -928.901722586568

DIPOLE MOMENT
-------------
                                X             Y             Z
Electronic contribution:     10.55416       2.01407       0.00512
Nuclear contribution   :    -10.39741      -1.99660      -0.00444
                        -----------------------------------------
Total Dipole Moment    :      0.15675       0.01747       0.00068
                        -----------------------------------------
Magnitude (a.u.)       :      0.15773
Magnitude (Debye)      :      0.40091

Rotational constants in cm-1:     0.006531     0.004289     0.002597
Rotational constants in MHz :   195.785594   128.568523    77.869221

CHEMICAL SHIELDING SUMMARY (ppm)  --  Orbital contribution
----------------------------------------------------------

  Nucleus  Element    Isotropic     Anisotropy
  -------  -------  ------------   ------------
      9       H           24.421         11.280
     10       H           24.490         12.549
     12       H           25.270         11.525
     14       H           28.976          4.380
     15       H           28.975          4.375
     17       H           29.642          6.495
     18       H           29.641          6.501
     20       H           30.311          7.948
     21       H           30.311          7.947
     23       H           28.755          5.535
     24       H           28.755          5.535
     26       H           29.836          4.680
     27       H           29.836          4.681
     29       H           29.913          6.472
     30       H           29.913          6.473
     32       H           30.313          7.758
     33       H           30.313          7.758
     35       H           28.259         10.719
     36       H           30.084         10.036
     37       H           30.111         10.276
     44       H           24.273          4.414
     45       H           24.031          7.640
     46       H           24.212          5.349
     47       H           24.207          5.201
     48       H           24.043          7.570

                             ****ORCA TERMINATED NORMALLY****
TOTAL RUN TIME: 0 days 1 hours 23 minutes 0 seconds 747 msec
