                         Program Version 5.0.4 -  RELEASE  -
|  1> ! B3LYP cc-pVDZ AUTOAUX
|  2> %pal nprocs 16 end
|  3> *XYZFile 0 2 opt.xyz
|  4> %EPRNMR
|  5>         GTENSOR   TRUE
|  6>         NUCLEI    = ALL H {SHIFT, AISO, ADIP, AORB}
|  7>         ORI       CenterOfElCharge
|  8> END
|  9>
| 10>                          ****END OF INPUT****

CARTESIAN COORDINATES (ANGSTROEM)
---------------------------------
  C      4.055651   -0.073547    0.001259
  C      2.833542   -0.006600   -0.001853
  C     -2.844938    0.019403   -0.004605
  C      1.413420    0.037578   -0.002650
  C      0.700732    1.295437   -0.002274
  C     -0.721501    1.219563   -0.002939
  C     -1.411453    0.007143   -0.003953
  C     -0.698523   -1.233355   -0.004352
  C      0.695582   -1.174421   -0.003778
  H     -1.303965    2.141141   -0.002676
  H      1.274536   -2.097754   -0.004091
  C      1.376735    2.533606   -0.001170
  H      2.469590    2.505778   -0.000846
  C      0.711209    3.877604   -0.000569
  H      0.041247    3.969721   -0.880342
  H      0.037271    3.967005    0.876408
  C      1.701375    5.049653    0.003518
  H      2.358700    4.962416    0.887902
  H      2.362825    4.965169   -0.878056
  C      1.013980    6.416414    0.004035
  H      0.370653    6.541162    0.892218
  H      0.374821    6.543928   -0.886762
  C     -1.466096   -2.538946   -0.005338
  H     -2.145195   -2.541193    0.867755
  H     -2.144376   -2.540390   -0.879069
  C     -0.640631   -3.828188   -0.005524
  H      0.023196   -3.849353   -0.889420
  H      0.022302   -3.850153    0.879024
  C     -1.515380   -5.087922   -0.006538
  H     -2.182257   -5.068236    0.875347
  H     -2.181205   -5.067554   -0.889201
  C     -0.702663   -6.385165   -0.006558
  H     -0.052972   -6.450617    0.883324
  H     -0.051766   -6.449835   -0.895614
  C     -4.060832    0.033276   -0.006062
  H     -5.133143    0.050044   -0.008099
  H      1.748932    7.237402    0.007037
  H     -1.357003   -7.272006   -0.007390
  C      8.290611   -0.349909    0.011621
  C      7.669126    0.904242    0.011288
  C      6.278191    1.001489    0.007860
  C      5.479290   -0.163666    0.004675
  C      6.117697   -1.424276    0.005036
  C      7.509166   -1.511211    0.008484
  H      9.380725   -0.422104    0.014310
  H      5.506205   -2.328550    0.002590
  H      8.273734    1.814420    0.013750
  H      7.988600   -2.493123    0.008723
  H      5.792435    1.979098    0.007626

 Total Charge           Charge          ....    0
 Multiplicity           Mult            ....    2
 Number of Electrons    NEL             ....  169
 Basis Dimension        Dim             ....  461

ORBITAL ENERGIES
----------------
                 SPIN UP ORBITALS
  NO   OCC          E(Eh)            E(eV)
   0   1.0000     -10.215267      -277.9715
   1   1.0000     -10.214541      -277.9518
   2   1.0000     -10.211701      -277.8745
   3   1.0000     -10.202651      -277.6283
   4   1.0000     -10.198429      -277.5134
   5   1.0000     -10.196432      -277.4590
   6   1.0000     -10.196191      -277.4525
   7   1.0000     -10.195176      -277.4248
   8   1.0000     -10.195131      -277.4236
   9   1.0000     -10.194466      -277.4055
  10   1.0000     -10.194291      -277.4008
  11   1.0000     -10.192589      -277.3544
  12   1.0000     -10.191613      -277.3279
  13   1.0000     -10.189784      -277.2781
  14   1.0000     -10.189092      -277.2593
  15   1.0000     -10.188441      -277.2416
  16   1.0000     -10.186839      -277.1980
  17   1.0000     -10.186460      -277.1877
  18   1.0000     -10.186031      -277.1760
  19   1.0000     -10.184408      -277.1318
  20   1.0000     -10.181554      -277.0542
  21   1.0000     -10.181366      -277.0491
  22   1.0000     -10.177388      -276.9408
  23   1.0000     -10.175461      -276.8884
  24   1.0000      -0.873938       -23.7811
  25   1.0000      -0.862454       -23.4686
  26   1.0000      -0.820102       -22.3161
  27   1.0000      -0.799080       -21.7441
  28   1.0000      -0.795883       -21.6571
  29   1.0000      -0.778067       -21.1723
  30   1.0000      -0.767737       -20.8912
  31   1.0000      -0.750220       -20.4145
  32   1.0000      -0.744646       -20.2628
  33   1.0000      -0.730346       -19.8737
  34   1.0000      -0.713546       -19.4166
  35   1.0000      -0.697697       -18.9853
  36   1.0000      -0.656863       -17.8741
  37   1.0000      -0.643832       -17.5195
  38   1.0000      -0.618023       -16.8173
  39   1.0000      -0.612651       -16.6711
  40   1.0000      -0.608107       -16.5474
  41   1.0000      -0.592665       -16.1272
  42   1.0000      -0.580364       -15.7925
  43   1.0000      -0.562110       -15.2958
  44   1.0000      -0.540741       -14.7143
  45   1.0000      -0.529285       -14.4026
  46   1.0000      -0.506751       -13.7894
  47   1.0000      -0.491833       -13.3835
  48   1.0000      -0.479901       -13.0588
  49   1.0000      -0.475999       -12.9526
  50   1.0000      -0.470371       -12.7994
  51   1.0000      -0.462598       -12.5879
  52   1.0000      -0.456806       -12.4303
  53   1.0000      -0.435912       -11.8618
  54   1.0000      -0.432325       -11.7642
  55   1.0000      -0.429414       -11.6849
  56   1.0000      -0.426177       -11.5969
  57   1.0000      -0.423393       -11.5211
  58   1.0000      -0.421616       -11.4728
  59   1.0000      -0.411823       -11.2063
  60   1.0000      -0.398691       -10.8489
  61   1.0000      -0.397981       -10.8296
  62   1.0000      -0.383882       -10.4460
  63   1.0000      -0.378660       -10.3039
  64   1.0000      -0.377051       -10.2601
  65   1.0000      -0.365287        -9.9400
  66   1.0000      -0.360977        -9.8227
  67   1.0000      -0.356474        -9.7001
  68   1.0000      -0.353701        -9.6247
  69   1.0000      -0.349652        -9.5145
  70   1.0000      -0.340423        -9.2634
  71   1.0000      -0.332957        -9.0602
  72   1.0000      -0.331482        -9.0201
  73   1.0000      -0.331263        -9.0141
  74   1.0000      -0.327521        -8.9123
  75   1.0000      -0.324160        -8.8208
  76   1.0000      -0.321288        -8.7427
  77   1.0000      -0.299664        -8.1543
  78   1.0000      -0.275122        -7.4864
  79   1.0000      -0.273309        -7.4371
  80   1.0000      -0.267421        -7.2769
  81   1.0000      -0.258372        -7.0307
  82   1.0000      -0.255335        -6.9480
  83   1.0000      -0.216694        -5.8965
  84   1.0000      -0.170830        -4.6485
  85   0.0000      -0.056619        -1.5407
  86   0.0000      -0.011555        -0.3144
  87   0.0000      -0.009788        -0.2663
  88   0.0000       0.013102         0.3565
  89   0.0000       0.041635         1.1330

                 SPIN DOWN ORBITALS
  NO   OCC          E(Eh)            E(eV)
   0   1.0000     -10.215618      -277.9811
   1   1.0000     -10.213334      -277.9190
   2   1.0000     -10.211179      -277.8603
   3   1.0000     -10.200887      -277.5802
   4   1.0000     -10.199247      -277.5356
   5   1.0000     -10.196055      -277.4488
   6   1.0000     -10.195819      -277.4423
   7   1.0000     -10.194929      -277.4181
   8   1.0000     -10.194629      -277.4100
   9   1.0000     -10.194278      -277.4004
  10   1.0000     -10.192096      -277.3410
  11   1.0000     -10.191372      -277.3213
  12   1.0000     -10.191222      -277.3172
  13   1.0000     -10.189113      -277.2599
  14   1.0000     -10.188910      -277.2543
  15   1.0000     -10.186662      -277.1932
  16   1.0000     -10.186659      -277.1931
  17   1.0000     -10.186575      -277.1908
  18   1.0000     -10.184370      -277.1308
  19   1.0000     -10.182743      -277.0865
  20   1.0000     -10.181551      -277.0541
  21   1.0000     -10.181365      -277.0490
  22   1.0000     -10.177396      -276.9410
  23   1.0000     -10.175462      -276.8884
  24   1.0000      -0.870629       -23.6910
  25   1.0000      -0.861992       -23.4560
  26   1.0000      -0.815218       -22.1832
  27   1.0000      -0.796379       -21.6706
  28   1.0000      -0.794681       -21.6244
  29   1.0000      -0.777219       -21.1492
  30   1.0000      -0.765726       -20.8365
  31   1.0000      -0.749864       -20.4048
  32   1.0000      -0.743530       -20.2325
  33   1.0000      -0.726476       -19.7684
  34   1.0000      -0.712763       -19.3953
  35   1.0000      -0.695509       -18.9258
  36   1.0000      -0.653840       -17.7919
  37   1.0000      -0.642609       -17.4863
  38   1.0000      -0.614371       -16.7179
  39   1.0000      -0.609824       -16.5942
  40   1.0000      -0.607873       -16.5411
  41   1.0000      -0.591767       -16.1028
  42   1.0000      -0.578760       -15.7489
  43   1.0000      -0.559674       -15.2295
  44   1.0000      -0.540194       -14.6994
  45   1.0000      -0.528000       -14.3676
  46   1.0000      -0.503562       -13.7026
  47   1.0000      -0.491020       -13.3613
  48   1.0000      -0.478656       -13.0249
  49   1.0000      -0.475049       -12.9267
  50   1.0000      -0.469528       -12.7765
  51   1.0000      -0.459203       -12.4956
  52   1.0000      -0.456599       -12.4247
  53   1.0000      -0.435298       -11.8451
  54   1.0000      -0.430502       -11.7146
  55   1.0000      -0.428172       -11.6512
  56   1.0000      -0.425013       -11.5652
  57   1.0000      -0.423288       -11.5182
  58   1.0000      -0.419001       -11.4016
  59   1.0000      -0.411348       -11.1933
  60   1.0000      -0.396910       -10.8005
  61   1.0000      -0.391153       -10.6438
  62   1.0000      -0.381235       -10.3739
  63   1.0000      -0.376381       -10.2418
  64   1.0000      -0.374441       -10.1891
  65   1.0000      -0.364165        -9.9094
  66   1.0000      -0.360530        -9.8105
  67   1.0000      -0.355635        -9.6773
  68   1.0000      -0.350728        -9.5438
  69   1.0000      -0.349484        -9.5100
  70   1.0000      -0.338200        -9.2029
  71   1.0000      -0.332433        -9.0460
  72   1.0000      -0.329888        -8.9767
  73   1.0000      -0.329017        -8.9530
  74   1.0000      -0.327179        -8.9030
  75   1.0000      -0.323399        -8.8001
  76   1.0000      -0.320643        -8.7252
  77   1.0000      -0.296852        -8.0777
  78   1.0000      -0.275090        -7.4856
  79   1.0000      -0.266999        -7.2654
  80   1.0000      -0.259968        -7.0741
  81   1.0000      -0.257365        -7.0033
  82   1.0000      -0.250537        -6.8174
  83   1.0000      -0.210249        -5.7212
  84   0.0000      -0.085895        -2.3373
  85   0.0000      -0.048576        -1.3218
  86   0.0000      -0.008919        -0.2427
  87   0.0000      -0.006424        -0.1748
  88   0.0000       0.029324         0.7979

MULLIKEN ATOMIC CHARGES AND SPIN POPULATIONS
--------------------------------------------
   0 C :    0.146625    0.099201
   1 C :    0.275514   -0.066086
   2 C :    0.626321    0.029366
   3 C :   -0.177408    0.223383
   4 C :    0.071786   -0.169436
   5 C :   -0.010789    0.219107
   6 C :   -0.022927   -0.110981
   7 C :   -0.076164    0.233632
   8 C :    0.007226   -0.118553
   9 H :   -0.049823   -0.009091
  10 H :   -0.054078    0.004302
  11 C :   -0.100768    0.694987
  12 H :   -0.025746   -0.030200
  13 C :    0.034286   -0.047664
  14 H :    0.029687    0.031172
  15 H :    0.029710    0.031046
  16 C :   -0.039644    0.002259
  17 H :    0.012443    0.000472
  18 H :    0.012450    0.000460
  19 C :    0.006043   -0.000178
  20 H :    0.017917    0.000152
  21 H :    0.017925    0.000152
  22 C :    0.043410   -0.018534
  23 H :    0.031953    0.009971
  24 H :    0.031955    0.009973
  25 C :   -0.036062    0.000864
  26 H :    0.016565    0.000170
  27 H :    0.016556    0.000170
  28 C :   -0.024201    0.000024
  29 H :    0.006186    0.000052
  30 H :    0.006184    0.000052
  31 C :    0.003001   -0.000080
  32 H :    0.017057    0.000023
  33 H :    0.017052    0.000023
  34 C :   -0.606295   -0.049781
  35 H :   -0.029317    0.001963
  36 H :    0.013410   -0.000200
  37 H :    0.012808   -0.000005
  38 C :    0.032698    0.028518
  39 C :    0.039897   -0.013620
  40 C :    0.025148    0.025984
  41 C :   -0.257573   -0.023080
  42 C :    0.030317    0.026066
  43 C :    0.040495   -0.013607
  44 H :   -0.027336   -0.001302
  45 H :   -0.040708   -0.001137
  46 H :   -0.027617    0.000535
  47 H :   -0.027248    0.000534
  48 H :   -0.038924   -0.001079
Sum of atomic charges         :   -0.0000000

LOEWDIN ATOMIC CHARGES AND SPIN POPULATIONS
-------------------------------------------
   0 C :   -0.021726    0.072752
   1 C :   -0.017354   -0.029648
   2 C :   -0.001102    0.013604
   3 C :   -0.038480    0.159761
   4 C :   -0.039848   -0.072404
   5 C :    0.010827    0.165019
   6 C :   -0.055007   -0.060892
   7 C :   -0.005308    0.172483
   8 C :   -0.008205   -0.064916
   9 H :    0.029450    0.000875
  10 H :    0.029730   -0.000460
  11 C :    0.012465    0.569812
  12 H :    0.021419    0.003363
  13 C :   -0.054446    0.005369
  14 H :    0.034640    0.024330
  15 H :    0.034611    0.024225
  16 C :   -0.046128    0.001155
  17 H :    0.025552    0.000300
  18 H :    0.025549    0.000293
  19 C :   -0.067629   -0.000043
  20 H :    0.025739    0.000244
  21 H :    0.025738    0.000245
  22 C :   -0.034881    0.002184
  23 H :    0.039749    0.007851
  24 H :    0.039749    0.007852
  25 C :   -0.043591    0.000149
  26 H :    0.024381    0.000053
  27 H :    0.024383    0.000053
  28 C :   -0.046993    0.000016
  29 H :    0.024182    0.000088
  30 H :    0.024181    0.000088
  31 C :   -0.067701   -0.000038
  32 H :    0.025139    0.000016
  33 H :    0.025138    0.000016
  34 C :   -0.051010   -0.039456
  35 H :    0.022628   -0.000077
  36 H :    0.028275   -0.000110
  37 H :    0.027489   -0.000007
  38 C :   -0.021965    0.022066
  39 C :   -0.024123   -0.008020
  40 C :   -0.002913    0.020081
  41 C :   -0.053367   -0.010473
  42 C :   -0.001489    0.020139
  43 C :   -0.024007   -0.008001
  44 H :    0.028058    0.000087
  45 H :    0.029938    0.000022
  46 H :    0.029316   -0.000036
  47 H :    0.029374   -0.000035
  48 H :    0.029572    0.000025

  Mayer bond orders larger than 0.100000
B(  0-C ,  1-C ) :   1.7156 B(  0-C , 41-C ) :   0.9325 B(  1-C ,  3-C ) :   0.8777
B(  1-C , 41-C ) :  -0.1817 B(  2-C ,  6-C ) :   0.9021 B(  2-C , 34-C ) :   2.1221
B(  3-C ,  4-C ) :   1.2779 B(  3-C ,  8-C ) :   1.4024 B(  4-C ,  5-C ) :   1.2854
B(  4-C , 11-C ) :   1.3830 B(  5-C ,  6-C ) :   1.4434 B(  5-C ,  9-H ) :   0.9177
B(  6-C ,  7-C ) :   1.3362 B(  7-C ,  8-C ) :   1.4214 B(  7-C , 22-C ) :   1.0929
B(  8-C , 10-H ) :   0.9212 B( 11-C , 12-H ) :   0.8994 B( 11-C , 13-C ) :   1.0840
B( 13-C , 14-H ) :   0.9115 B( 13-C , 15-H ) :   0.9115 B( 13-C , 16-C ) :   1.0715
B( 16-C , 17-H ) :   0.9438 B( 16-C , 18-H ) :   0.9438 B( 16-C , 19-C ) :   1.1066
B( 19-C , 20-H ) :   0.9653 B( 19-C , 21-H ) :   0.9653 B( 19-C , 36-H ) :   0.9608
B( 22-C , 23-H ) :   0.8964 B( 22-C , 24-H ) :   0.8964 B( 22-C , 25-C ) :   1.1040
B( 25-C , 26-H ) :   0.9293 B( 25-C , 27-H ) :   0.9293 B( 25-C , 28-C ) :   1.0749
B( 28-C , 29-H ) :   0.9410 B( 28-C , 30-H ) :   0.9410 B( 28-C , 31-C ) :   1.1060
B( 31-C , 32-H ) :   0.9662 B( 31-C , 33-H ) :   0.9662 B( 31-C , 37-H ) :   0.9617
B( 34-C , 35-H ) :   1.1184 B( 38-C , 39-C ) :   1.4430 B( 38-C , 43-C ) :   1.4428
B( 38-C , 44-H ) :   0.9432 B( 39-C , 40-C ) :   1.4714 B( 39-C , 46-H ) :   0.9378
B( 40-C , 41-C ) :   1.4369 B( 40-C , 48-H ) :   0.9404 B( 41-C , 42-C ) :   1.4390
B( 42-C , 43-C ) :   1.4724 B( 42-C , 45-H ) :   0.9398 B( 43-C , 47-H ) :   0.9378

FINAL SINGLE POINT ENERGY      -928.901720755648

DIPOLE MOMENT
-------------
                                X             Y             Z
Electronic contribution:     10.55389       2.01405       0.00512
Nuclear contribution   :    -10.39741      -1.99660      -0.00444
                        -----------------------------------------
Total Dipole Moment    :      0.15648       0.01745       0.00067
                        -----------------------------------------
Magnitude (a.u.)       :      0.15745
Magnitude (Debye)      :      0.40022

Rotational constants in cm-1:     0.006531     0.004289     0.002597
Rotational constants in MHz :   195.785594   128.568523    77.869221

CHEMICAL SHIELDING SUMMARY (ppm)  --  Orbital contribution
----------------------------------------------------------

  Nucleus  Element    Isotropic     Anisotropy
  -------  -------  ------------   ------------
      9       H           32.487         35.629
     10       H          103.557         15.472
     12       H          103.141         16.721
     14       H           48.455         32.623
     15       H           48.594         32.546
     17       H           60.809         19.824
     18       H           60.665         19.815
     20       H            2.367         24.679
     21       H            2.241         24.730
     23       H           30.460         52.883
     24       H           30.364         52.891
     26       H          103.940         16.136
     27       H          104.035         16.085
     29       H            1.786         31.852
     30       H            1.703         31.854
     32       H           45.427         13.420
     33       H           45.364         13.447
     35       H          -92.363       -106.413
     36       H          -48.078         24.796
     37       H          -79.565        -75.920
     44       H         -124.747       -172.177
     45       H           94.597         19.464
     46       H          -57.713          1.370
     47       H          -49.580          4.186
     48       H           85.932         20.702

                             ****ORCA TERMINATED NORMALLY****
TOTAL RUN TIME: 0 days 1 hours 19 minutes 48 seconds 771 msec
