                         Program Version 5.0.4 -  RELEASE  -
|  1> ! B3LYP EPR-II AUTOAUX
|  2> %pal nprocs 16 end
|  3> *XYZFile 0 2 opt.xyz
|  4> %EPRNMR
|  5>         GTENSOR   TRUE
|  6>         NUCLEI    = ALL H {SHIFT, AISO, ADIP, AORB}
|  7>         ORI       CenterOfElCharge
|  8> END
|  9>
| 10>                          ****END OF INPUT****

CARTESIAN COORDINATES (ANGSTROEM)
---------------------------------
  C      4.055651   -0.073547    0.001259
  C      2.833542   -0.006600   -0.001853
  C     -2.844938    0.019403   -0.004605
  C      1.413420    0.037578   -0.002650
  C      0.700732    1.295437   -0.002274
  C     -0.721501    1.219563   -0.002939
  C     -1.411453    0.007143   -0.003953
  C     -0.698523   -1.233355   -0.004352
  C      0.695582   -1.174421   -0.003778
  H     -1.303965    2.141141   -0.002676
  H      1.274536   -2.097754   -0.004091
  C      1.376735    2.533606   -0.001170
  H      2.469590    2.505778   -0.000846
  C      0.711209    3.877604   -0.000569
  H      0.041247    3.969721   -0.880342
  H      0.037271    3.967005    0.876408
  C      1.701375    5.049653    0.003518
  H      2.358700    4.962416    0.887902
  H      2.362825    4.965169   -0.878056
  C      1.013980    6.416414    0.004035
  H      0.370653    6.541162    0.892218
  H      0.374821    6.543928   -0.886762
  C     -1.466096   -2.538946   -0.005338
  H     -2.145195   -2.541193    0.867755
  H     -2.144376   -2.540390   -0.879069
  C     -0.640631   -3.828188   -0.005524
  H      0.023196   -3.849353   -0.889420
  H      0.022302   -3.850153    0.879024
  C     -1.515380   -5.087922   -0.006538
  H     -2.182257   -5.068236    0.875347
  H     -2.181205   -5.067554   -0.889201
  C     -0.702663   -6.385165   -0.006558
  H     -0.052972   -6.450617    0.883324
  H     -0.051766   -6.449835   -0.895614
  C     -4.060832    0.033276   -0.006062
  H     -5.133143    0.050044   -0.008099
  H      1.748932    7.237402    0.007037
  H     -1.357003   -7.272006   -0.007390
  C      8.290611   -0.349909    0.011621
  C      7.669126    0.904242    0.011288
  C      6.278191    1.001489    0.007860
  C      5.479290   -0.163666    0.004675
  C      6.117697   -1.424276    0.005036
  C      7.509166   -1.511211    0.008484
  H      9.380725   -0.422104    0.014310
  H      5.506205   -2.328550    0.002590
  H      8.273734    1.814420    0.013750
  H      7.988600   -2.493123    0.008723
  H      5.792435    1.979098    0.007626

 Total Charge           Charge          ....    0
 Multiplicity           Mult            ....    2
 Number of Electrons    NEL             ....  169
 Basis Dimension        Dim             ....  583

ORBITAL ENERGIES
----------------
                 SPIN UP ORBITALS
  NO   OCC          E(Eh)            E(eV)
   0   1.0000     -10.226705      -278.2828
   1   1.0000     -10.223990      -278.2089
   2   1.0000     -10.221820      -278.1499
   3   1.0000     -10.211581      -277.8712
   4   1.0000     -10.208347      -277.7832
   5   1.0000     -10.205638      -277.7095
   6   1.0000     -10.204884      -277.6890
   7   1.0000     -10.204564      -277.6803
   8   1.0000     -10.204274      -277.6724
   9   1.0000     -10.203379      -277.6481
  10   1.0000     -10.203177      -277.6426
  11   1.0000     -10.202333      -277.6196
  12   1.0000     -10.201986      -277.6101
  13   1.0000     -10.199187      -277.5340
  14   1.0000     -10.198315      -277.5103
  15   1.0000     -10.196657      -277.4651
  16   1.0000     -10.196406      -277.4583
  17   1.0000     -10.190128      -277.2875
  18   1.0000     -10.187482      -277.2155
  19   1.0000     -10.185580      -277.1637
  20   1.0000     -10.182254      -277.0732
  21   1.0000     -10.181980      -277.0657
  22   1.0000     -10.175377      -276.8861
  23   1.0000     -10.172991      -276.8211
  24   1.0000      -0.873573       -23.7711
  25   1.0000      -0.862763       -23.4770
  26   1.0000      -0.819283       -22.2938
  27   1.0000      -0.798866       -21.7382
  28   1.0000      -0.794320       -21.6145
  29   1.0000      -0.778626       -21.1875
  30   1.0000      -0.766624       -20.8609
  31   1.0000      -0.750808       -20.4305
  32   1.0000      -0.745528       -20.2868
  33   1.0000      -0.729519       -19.8512
  34   1.0000      -0.714434       -19.4407
  35   1.0000      -0.696598       -18.9554
  36   1.0000      -0.655947       -17.8492
  37   1.0000      -0.644381       -17.5345
  38   1.0000      -0.617645       -16.8070
  39   1.0000      -0.613018       -16.6811
  40   1.0000      -0.609037       -16.5727
  41   1.0000      -0.592378       -16.1194
  42   1.0000      -0.579758       -15.7760
  43   1.0000      -0.561939       -15.2911
  44   1.0000      -0.542155       -14.7528
  45   1.0000      -0.530757       -14.4426
  46   1.0000      -0.506878       -13.7928
  47   1.0000      -0.492942       -13.4136
  48   1.0000      -0.480227       -13.0676
  49   1.0000      -0.476429       -12.9643
  50   1.0000      -0.470013       -12.7897
  51   1.0000      -0.462708       -12.5909
  52   1.0000      -0.456531       -12.4229
  53   1.0000      -0.437008       -11.8916
  54   1.0000      -0.432357       -11.7650
  55   1.0000      -0.429270       -11.6810
  56   1.0000      -0.425671       -11.5831
  57   1.0000      -0.424815       -11.5598
  58   1.0000      -0.421472       -11.4688
  59   1.0000      -0.411377       -11.1941
  60   1.0000      -0.398753       -10.8506
  61   1.0000      -0.397524       -10.8172
  62   1.0000      -0.383968       -10.4483
  63   1.0000      -0.378572       -10.3015
  64   1.0000      -0.377042       -10.2598
  65   1.0000      -0.364767        -9.9258
  66   1.0000      -0.362087        -9.8529
  67   1.0000      -0.356563        -9.7026
  68   1.0000      -0.353679        -9.6241
  69   1.0000      -0.351223        -9.5573
  70   1.0000      -0.339718        -9.2442
  71   1.0000      -0.332629        -9.0513
  72   1.0000      -0.331924        -9.0321
  73   1.0000      -0.331251        -9.0138
  74   1.0000      -0.326908        -8.8956
  75   1.0000      -0.323024        -8.7899
  76   1.0000      -0.320798        -8.7294
  77   1.0000      -0.300397        -8.1742
  78   1.0000      -0.276943        -7.5360
  79   1.0000      -0.273442        -7.4407
  80   1.0000      -0.268565        -7.3080
  81   1.0000      -0.259095        -7.0503
  82   1.0000      -0.256409        -6.9773
  83   1.0000      -0.217656        -5.9227
  84   1.0000      -0.171357        -4.6629
  85   0.0000      -0.058926        -1.6035
  86   0.0000      -0.014864        -0.4045
  87   0.0000      -0.014076        -0.3830
  88   0.0000       0.010622         0.2890
  89   0.0000       0.015189         0.4133

                 SPIN DOWN ORBITALS
  NO   OCC          E(Eh)            E(eV)
   0   1.0000     -10.227052      -278.2922
   1   1.0000     -10.223445      -278.1941
   2   1.0000     -10.220629      -278.1175
   3   1.0000     -10.210782      -277.8495
   4   1.0000     -10.208181      -277.7787
   5   1.0000     -10.205222      -277.6982
   6   1.0000     -10.204542      -277.6797
   7   1.0000     -10.204251      -277.6718
   8   1.0000     -10.203971      -277.6642
   9   1.0000     -10.203506      -277.6515
  10   1.0000     -10.203218      -277.6437
  11   1.0000     -10.201450      -277.5956
  12   1.0000     -10.199295      -277.5369
  13   1.0000     -10.199268      -277.5362
  14   1.0000     -10.197985      -277.5013
  15   1.0000     -10.197302      -277.4827
  16   1.0000     -10.190784      -277.3053
  17   1.0000     -10.188576      -277.2452
  18   1.0000     -10.187678      -277.2208
  19   1.0000     -10.185544      -277.1627
  20   1.0000     -10.182252      -277.0732
  21   1.0000     -10.181980      -277.0658
  22   1.0000     -10.175385      -276.8863
  23   1.0000     -10.172992      -276.8212
  24   1.0000      -0.870277       -23.6814
  25   1.0000      -0.862299       -23.4644
  26   1.0000      -0.814461       -22.1626
  27   1.0000      -0.796236       -21.6667
  28   1.0000      -0.792947       -21.5772
  29   1.0000      -0.777807       -21.1652
  30   1.0000      -0.764660       -20.8074
  31   1.0000      -0.750454       -20.4209
  32   1.0000      -0.744545       -20.2601
  33   1.0000      -0.725474       -19.7412
  34   1.0000      -0.713712       -19.4211
  35   1.0000      -0.694403       -18.8957
  36   1.0000      -0.652884       -17.7659
  37   1.0000      -0.643148       -17.5009
  38   1.0000      -0.614768       -16.7287
  39   1.0000      -0.609504       -16.5855
  40   1.0000      -0.608784       -16.5658
  41   1.0000      -0.591475       -16.0949
  42   1.0000      -0.578127       -15.7316
  43   1.0000      -0.559602       -15.2275
  44   1.0000      -0.541606       -14.7379
  45   1.0000      -0.529523       -14.4091
  46   1.0000      -0.503657       -13.7052
  47   1.0000      -0.492071       -13.3899
  48   1.0000      -0.479139       -13.0380
  49   1.0000      -0.475264       -12.9326
  50   1.0000      -0.469151       -12.7663
  51   1.0000      -0.459329       -12.4990
  52   1.0000      -0.456322       -12.4171
  53   1.0000      -0.436547       -11.8791
  54   1.0000      -0.430767       -11.7218
  55   1.0000      -0.427551       -11.6343
  56   1.0000      -0.424826       -11.5601
  57   1.0000      -0.424338       -11.5468
  58   1.0000      -0.418861       -11.3978
  59   1.0000      -0.410939       -11.1822
  60   1.0000      -0.396428       -10.7874
  61   1.0000      -0.391282       -10.6473
  62   1.0000      -0.381302       -10.3758
  63   1.0000      -0.376263       -10.2386
  64   1.0000      -0.374432       -10.1888
  65   1.0000      -0.363610        -9.8943
  66   1.0000      -0.361694        -9.8422
  67   1.0000      -0.355683        -9.6786
  68   1.0000      -0.351053        -9.5526
  69   1.0000      -0.350670        -9.5422
  70   1.0000      -0.337394        -9.1810
  71   1.0000      -0.332120        -9.0374
  72   1.0000      -0.330213        -8.9856
  73   1.0000      -0.329094        -8.9551
  74   1.0000      -0.326557        -8.8861
  75   1.0000      -0.322330        -8.7710
  76   1.0000      -0.320235        -8.7140
  77   1.0000      -0.297616        -8.0986
  78   1.0000      -0.276896        -7.5347
  79   1.0000      -0.268144        -7.2966
  80   1.0000      -0.260196        -7.0803
  81   1.0000      -0.258094        -7.0231
  82   1.0000      -0.251410        -6.8412
  83   1.0000      -0.211389        -5.7522
  84   0.0000      -0.086973        -2.3667
  85   0.0000      -0.051055        -1.3893
  86   0.0000      -0.013250        -0.3606
  87   0.0000      -0.009784        -0.2662
  88   0.0000       0.015427         0.4198

MULLIKEN ATOMIC CHARGES AND SPIN POPULATIONS
--------------------------------------------
   0 C :   -0.311033    0.093176
   1 C :   -0.391410   -0.061276
   2 C :    0.000626    0.025776
   3 C :    0.495955    0.202321
   4 C :    0.381058   -0.136847
   5 C :   -0.442075    0.209405
   6 C :    0.416879   -0.094358
   7 C :    0.301150    0.219368
   8 C :   -0.403545   -0.109214
   9 H :    0.130368   -0.011391
  10 H :    0.130949    0.005122
  11 C :   -0.261807    0.687532
  12 H :    0.125684   -0.036137
  13 C :   -0.267831   -0.045294
  14 H :    0.150483    0.030633
  15 H :    0.150342    0.030524
  16 C :   -0.282565    0.002140
  17 H :    0.152454   -0.000170
  18 H :    0.152390   -0.000168
  19 C :   -0.507531   -0.000752
  20 H :    0.157657    0.000175
  21 H :    0.157652    0.000175
  22 C :   -0.385101   -0.016444
  23 H :    0.153035    0.010622
  24 H :    0.153034    0.010627
  25 C :   -0.265322    0.000904
  26 H :    0.139456    0.000183
  27 H :    0.139473    0.000183
  28 C :   -0.254662   -0.000229
  29 H :    0.142367    0.000042
  30 H :    0.142371    0.000042
  31 C :   -0.508705   -0.000085
  32 H :    0.157675    0.000025
  33 H :    0.157668    0.000025
  34 C :   -0.546941   -0.048339
  35 H :    0.182835    0.001970
  36 H :    0.144706   -0.000167
  37 H :    0.143213   -0.000005
  38 C :   -0.123153    0.028053
  39 C :   -0.098580   -0.012862
  40 C :   -0.283512    0.024478
  41 C :    0.601795   -0.018752
  42 C :   -0.277371    0.024798
  43 C :   -0.099620   -0.012864
  44 H :    0.105696   -0.001590
  45 H :    0.118393   -0.001329
  46 H :    0.104723    0.000630
  47 H :    0.104994    0.000627
  48 H :    0.115681   -0.001281
Sum of atomic charges         :   -0.0000000

LOEWDIN ATOMIC CHARGES AND SPIN POPULATIONS
-------------------------------------------
   0 C :   -0.035300    0.071145
   1 C :   -0.029735   -0.028571
   2 C :   -0.030465    0.013126
   3 C :   -0.053647    0.159496
   4 C :   -0.067948   -0.071004
   5 C :    0.009255    0.165858
   6 C :   -0.073344   -0.060243
   7 C :   -0.041676    0.172772
   8 C :   -0.010842   -0.064589
   9 H :    0.062555    0.001049
  10 H :    0.063255   -0.000505
  11 C :   -0.010816    0.567577
  12 H :    0.059974    0.003951
  13 C :   -0.087348    0.003473
  14 H :    0.056921    0.024971
  15 H :    0.056870    0.024873
  16 C :   -0.094067    0.000972
  17 H :    0.044804   -0.000064
  18 H :    0.044787   -0.000064
  19 C :   -0.084064   -0.000126
  20 H :    0.036799    0.000213
  21 H :    0.036799    0.000213
  22 C :   -0.048471    0.001644
  23 H :    0.062501    0.008442
  24 H :    0.062501    0.008444
  25 C :   -0.084588    0.000184
  26 H :    0.046939    0.000008
  27 H :    0.046944    0.000008
  28 C :   -0.095814    0.000008
  29 H :    0.043679    0.000060
  30 H :    0.043678    0.000060
  31 C :   -0.085108   -0.000032
  32 H :    0.036350    0.000017
  33 H :    0.036350    0.000016
  34 C :   -0.062542   -0.038936
  35 H :    0.048811   -0.000192
  36 H :    0.034586   -0.000082
  37 H :    0.033880   -0.000006
  38 C :   -0.045572    0.021869
  39 C :   -0.045580   -0.007840
  40 C :   -0.018208    0.019766
  41 C :   -0.073552   -0.010221
  42 C :   -0.017099    0.019936
  43 C :   -0.045310   -0.007817
  44 H :    0.051522    0.000136
  45 H :    0.058361    0.000052
  46 H :    0.052719   -0.000051
  47 H :    0.052795   -0.000050
  48 H :    0.057457    0.000051

  Mayer bond orders larger than 0.100000
B(  0-C ,  1-C ) :   2.4715 B(  0-C ,  3-C ) :   0.1029 B(  0-C , 41-C ) :   1.0214
B(  1-C ,  3-C ) :   0.8158 B(  1-C ,  4-C ) :   0.1044 B(  2-C ,  6-C ) :   0.9055
B(  2-C , 34-C ) :   2.7078 B(  3-C ,  4-C ) :   1.2590 B(  3-C ,  7-C ) :   0.1040
B(  3-C ,  8-C ) :   1.4496 B(  4-C ,  5-C ) :   1.2393 B(  4-C ,  6-C ) :   0.1082
B(  4-C , 11-C ) :   1.3016 B(  5-C ,  6-C ) :   1.4801 B(  5-C ,  9-H ) :   0.9762
B(  5-C , 34-C ) :   0.1027 B(  6-C ,  7-C ) :   1.3140 B(  6-C ,  8-C ) :   0.1038
B(  7-C ,  8-C ) :   1.4230 B(  7-C , 22-C ) :   0.9426 B(  8-C , 10-H ) :   0.9727
B( 11-C , 12-H ) :   0.9813 B( 11-C , 13-C ) :   1.0012 B( 13-C , 14-H ) :   0.9551
B( 13-C , 15-H ) :   0.9550 B( 13-C , 16-C ) :   0.9825 B( 16-C , 17-H ) :   0.9721
B( 16-C , 18-H ) :   0.9720 B( 16-C , 19-C ) :   0.9615 B( 19-C , 20-H ) :   0.9727
B( 19-C , 21-H ) :   0.9727 B( 19-C , 36-H ) :   0.9672 B( 22-C , 23-H ) :   0.9595
B( 22-C , 24-H ) :   0.9595 B( 22-C , 25-C ) :   1.0209 B( 25-C , 26-H ) :   0.9606
B( 25-C , 27-H ) :   0.9606 B( 25-C , 28-C ) :   0.9875 B( 28-C , 29-H ) :   0.9710
B( 28-C , 30-H ) :   0.9710 B( 28-C , 31-C ) :   0.9538 B( 31-C , 32-H ) :   0.9730
B( 31-C , 33-H ) :   0.9730 B( 31-C , 37-H ) :   0.9675 B( 34-C , 35-H ) :   0.9843
B( 38-C , 39-C ) :   1.4532 B( 38-C , 40-C ) :   0.1035 B( 38-C , 42-C ) :   0.1005
B( 38-C , 43-C ) :   1.4515 B( 38-C , 44-H ) :   0.9658 B( 39-C , 40-C ) :   1.4781
B( 39-C , 46-H ) :   0.9770 B( 40-C , 41-C ) :   1.3838 B( 40-C , 48-H ) :   0.9816
B( 41-C , 42-C ) :   1.3801 B( 42-C , 43-C ) :   1.4779 B( 42-C , 45-H ) :   0.9828
B( 43-C , 47-H ) :   0.9763

FINAL SINGLE POINT ENERGY      -928.972110466557

DIPOLE MOMENT
-------------
                                X             Y             Z
Electronic contribution:     10.59133       2.02040       0.00519
Nuclear contribution   :    -10.39741      -1.99660      -0.00444
                        -----------------------------------------
Total Dipole Moment    :      0.19392       0.02381       0.00074
                        -----------------------------------------
Magnitude (a.u.)       :      0.19538
Magnitude (Debye)      :      0.49662

Rotational constants in cm-1:     0.006531     0.004289     0.002597
Rotational constants in MHz :   195.785594   128.568523    77.869221

CHEMICAL SHIELDING SUMMARY (ppm)  --  Orbital contribution
----------------------------------------------------------

  Nucleus  Element    Isotropic     Anisotropy
  -------  -------  ------------   ------------
      9       H           30.062         31.231
     10       H           99.785         12.722
     12       H           99.820         14.708
     14       H           46.690         31.093
     15       H           46.829         31.014
     17       H           58.651         18.769
     18       H           58.504         18.764
     20       H            4.129         22.949
     21       H            4.005         23.002
     23       H           29.431         50.717
     24       H           29.336         50.725
     26       H          101.250         14.830
     27       H          101.344         14.778
     29       H            1.261         30.865
     30       H            1.178         30.869
     32       H           45.634         12.381
     33       H           45.573         12.409
     35       H          -96.166       -106.497
     36       H          -45.120         24.547
     37       H          -75.917        -70.065
     44       H         -124.870       -175.350
     45       H           92.566         19.829
     46       H          -58.009         -0.791
     47       H          -49.935          2.131
     48       H           83.898         21.122

                             ****ORCA TERMINATED NORMALLY****
TOTAL RUN TIME: 0 days 1 hours 30 minutes 57 seconds 92 msec
