                         Program Version 5.0.4 -  RELEASE  -
|  1> ! B3LYP EPR-II AUTOAUX
|  2> %pal nprocs 16 end
|  3> *XYZFile 0 2 opt_EPRII.xyz
|  4> %EPRNMR
|  5>         GTENSOR   TRUE
|  6>         NUCLEI    = ALL H {SHIFT, AISO, ADIP, AORB}
|  7>         ORI       GIAO
|  8> END
|  9>
| 10>                          ****END OF INPUT****

CARTESIAN COORDINATES (ANGSTROEM)
---------------------------------
  C      4.056806   -0.075107    0.000987
  C      2.831075   -0.015247   -0.001957
  C     -2.856691    0.022164   -0.006721
  C      1.407980    0.029084   -0.002965
  C      0.697313    1.290948   -0.002944
  C     -0.728576    1.222563   -0.004345
  C     -1.420228    0.007051   -0.005439
  C     -0.710323   -1.238279   -0.005176
  C      0.687725   -1.185075   -0.004073
  H     -1.303318    2.142043   -0.004518
  H      1.259191   -2.106067   -0.003982
  C      1.381871    2.529466   -0.001368
  H      2.468255    2.499461   -0.000331
  C      0.717227    3.880714   -0.001279
  H      0.060018    3.977204   -0.880187
  H      0.051519    3.973005    0.871605
  C      1.718912    5.050707    0.006459
  H      2.365529    4.963269    0.888934
  H      2.374398    4.967475   -0.869874
  C      1.030429    6.425729    0.006250
  H      0.390878    6.546562    0.887945
  H      0.399677    6.550691   -0.881193
  C     -1.485074   -2.545236   -0.006098
  H     -2.155575   -2.548390    0.864305
  H     -2.153450   -2.548476   -0.878141
  C     -0.652575   -3.836931   -0.004992
  H      0.004232   -3.859373   -0.884856
  H      0.002221   -3.859116    0.876378
  C     -1.531601   -5.100749   -0.005804
  H     -2.190977   -5.083335    0.872096
  H     -2.188855   -5.083689   -0.885299
  C     -0.710777   -6.402135   -0.004548
  H     -0.067506   -6.460952    0.880721
  H     -0.065250   -6.461228   -0.888154
  C     -4.077022    0.029148   -0.008538
  H     -5.142881    0.040087   -0.010481
  H      1.764520    7.237891    0.011791
  H     -1.360545   -7.283423   -0.005233
  C      8.306013   -0.328427    0.010363
  C      7.674297    0.927139    0.009003
  C      6.277793    1.016520    0.005896
  C      5.485015   -0.157854    0.004124
  C      6.130668   -1.419396    0.005474
  C      7.527661   -1.498777    0.008580
  H      9.390693   -0.394124    0.012778
  H      5.527121   -2.322182    0.004079
  H      8.270944    1.835618    0.010356
  H      8.010834   -2.472385    0.009608
  H      5.788588    1.986033    0.004828

 Total Charge           Charge          ....    0
 Multiplicity           Mult            ....    2
 Number of Electrons    NEL             ....  169
 Basis Dimension        Dim             ....  583

ORBITAL ENERGIES
----------------
                 SPIN UP ORBITALS
  NO   OCC          E(Eh)            E(eV)
   0   1.0000     -10.227896      -278.3152
   1   1.0000     -10.224942      -278.2348
   2   1.0000     -10.222895      -278.1791
   3   1.0000     -10.212576      -277.8983
   4   1.0000     -10.209280      -277.8086
   5   1.0000     -10.206639      -277.7368
   6   1.0000     -10.205376      -277.7024
   7   1.0000     -10.205080      -277.6943
   8   1.0000     -10.204897      -277.6894
   9   1.0000     -10.203994      -277.6648
  10   1.0000     -10.203807      -277.6597
  11   1.0000     -10.202867      -277.6341
  12   1.0000     -10.202731      -277.6304
  13   1.0000     -10.200104      -277.5590
  14   1.0000     -10.198373      -277.5118
  15   1.0000     -10.196882      -277.4713
  16   1.0000     -10.196832      -277.4699
  17   1.0000     -10.189003      -277.2569
  18   1.0000     -10.186600      -277.1915
  19   1.0000     -10.184302      -277.1289
  20   1.0000     -10.181040      -277.0402
  21   1.0000     -10.180672      -277.0302
  22   1.0000     -10.173221      -276.8274
  23   1.0000     -10.170790      -276.7613
  24   1.0000      -0.872028       -23.7291
  25   1.0000      -0.860435       -23.4136
  26   1.0000      -0.817971       -22.2581
  27   1.0000      -0.797740       -21.7076
  28   1.0000      -0.793281       -21.5863
  29   1.0000      -0.777337       -21.1524
  30   1.0000      -0.765797       -20.8384
  31   1.0000      -0.750110       -20.4115
  32   1.0000      -0.744531       -20.2597
  33   1.0000      -0.728973       -19.8364
  34   1.0000      -0.713796       -19.4234
  35   1.0000      -0.696552       -18.9541
  36   1.0000      -0.656245       -17.8573
  37   1.0000      -0.643880       -17.5209
  38   1.0000      -0.618414       -16.8279
  39   1.0000      -0.613104       -16.6834
  40   1.0000      -0.609342       -16.5810
  41   1.0000      -0.593386       -16.1469
  42   1.0000      -0.581409       -15.8209
  43   1.0000      -0.563288       -15.3278
  44   1.0000      -0.542172       -14.7532
  45   1.0000      -0.531332       -14.4583
  46   1.0000      -0.506755       -13.7895
  47   1.0000      -0.493208       -13.4209
  48   1.0000      -0.480994       -13.0885
  49   1.0000      -0.476301       -12.9608
  50   1.0000      -0.470886       -12.8135
  51   1.0000      -0.463759       -12.6195
  52   1.0000      -0.455061       -12.3828
  53   1.0000      -0.437642       -11.9088
  54   1.0000      -0.432469       -11.7681
  55   1.0000      -0.428721       -11.6661
  56   1.0000      -0.425599       -11.5811
  57   1.0000      -0.425259       -11.5719
  58   1.0000      -0.422413       -11.4944
  59   1.0000      -0.411695       -11.2028
  60   1.0000      -0.399561       -10.8726
  61   1.0000      -0.396927       -10.8009
  62   1.0000      -0.383673       -10.4403
  63   1.0000      -0.378692       -10.3047
  64   1.0000      -0.376469       -10.2443
  65   1.0000      -0.364830        -9.9275
  66   1.0000      -0.362635        -9.8678
  67   1.0000      -0.356412        -9.6985
  68   1.0000      -0.355187        -9.6651
  69   1.0000      -0.352134        -9.5821
  70   1.0000      -0.338476        -9.2104
  71   1.0000      -0.333621        -9.0783
  72   1.0000      -0.332547        -9.0491
  73   1.0000      -0.331946        -9.0327
  74   1.0000      -0.326911        -8.8957
  75   1.0000      -0.322760        -8.7827
  76   1.0000      -0.321947        -8.7606
  77   1.0000      -0.299635        -8.1535
  78   1.0000      -0.276278        -7.5179
  79   1.0000      -0.273457        -7.4411
  80   1.0000      -0.268182        -7.2976
  81   1.0000      -0.258472        -7.0334
  82   1.0000      -0.255878        -6.9628
  83   1.0000      -0.217439        -5.9168
  84   1.0000      -0.171703        -4.6723
  85   0.0000      -0.059455        -1.6179
  86   0.0000      -0.015782        -0.4295
  87   0.0000      -0.015199        -0.4136
  88   0.0000       0.009659         0.2628
  89   0.0000       0.015500         0.4218

                 SPIN DOWN ORBITALS
  NO   OCC          E(Eh)            E(eV)
   0   1.0000     -10.228250      -278.3248
   1   1.0000     -10.224539      -278.2238
   2   1.0000     -10.221572      -278.1431
   3   1.0000     -10.211740      -277.8756
   4   1.0000     -10.209163      -277.8054
   5   1.0000     -10.206204      -277.7249
   6   1.0000     -10.205039      -277.6932
   7   1.0000     -10.204784      -277.6863
   8   1.0000     -10.204560      -277.6802
   9   1.0000     -10.204118      -277.6682
  10   1.0000     -10.203857      -277.6611
  11   1.0000     -10.202326      -277.6194
  12   1.0000     -10.200221      -277.5621
  13   1.0000     -10.199645      -277.5465
  14   1.0000     -10.198428      -277.5133
  15   1.0000     -10.197549      -277.4894
  16   1.0000     -10.189652      -277.2745
  17   1.0000     -10.188581      -277.2454
  18   1.0000     -10.186793      -277.1967
  19   1.0000     -10.184266      -277.1280
  20   1.0000     -10.181037      -277.0401
  21   1.0000     -10.180673      -277.0302
  22   1.0000     -10.173230      -276.8277
  23   1.0000     -10.170792      -276.7613
  24   1.0000      -0.868739       -23.6396
  25   1.0000      -0.859976       -23.4011
  26   1.0000      -0.813175       -22.1276
  27   1.0000      -0.795157       -21.6373
  28   1.0000      -0.791870       -21.5479
  29   1.0000      -0.776519       -21.1302
  30   1.0000      -0.763836       -20.7850
  31   1.0000      -0.749756       -20.4019
  32   1.0000      -0.743552       -20.2331
  33   1.0000      -0.724956       -19.7271
  34   1.0000      -0.713074       -19.4037
  35   1.0000      -0.694412       -18.8959
  36   1.0000      -0.653147       -17.7730
  37   1.0000      -0.642661       -17.4877
  38   1.0000      -0.614903       -16.7324
  39   1.0000      -0.610153       -16.6031
  40   1.0000      -0.609106       -16.5746
  41   1.0000      -0.592499       -16.1227
  42   1.0000      -0.579764       -15.7762
  43   1.0000      -0.560859       -15.2617
  44   1.0000      -0.541595       -14.7376
  45   1.0000      -0.530147       -14.4260
  46   1.0000      -0.503587       -13.7033
  47   1.0000      -0.492296       -13.3961
  48   1.0000      -0.480063       -13.0632
  49   1.0000      -0.474946       -12.9239
  50   1.0000      -0.470046       -12.7906
  51   1.0000      -0.460460       -12.5297
  52   1.0000      -0.454852       -12.3771
  53   1.0000      -0.437164       -11.8958
  54   1.0000      -0.431381       -11.7385
  55   1.0000      -0.426467       -11.6048
  56   1.0000      -0.425388       -11.5754
  57   1.0000      -0.424157       -11.5419
  58   1.0000      -0.419962       -11.4277
  59   1.0000      -0.411311       -11.1923
  60   1.0000      -0.395795       -10.7701
  61   1.0000      -0.392251       -10.6737
  62   1.0000      -0.380687       -10.3590
  63   1.0000      -0.376372       -10.2416
  64   1.0000      -0.374199       -10.1825
  65   1.0000      -0.363682        -9.8963
  66   1.0000      -0.362253        -9.8574
  67   1.0000      -0.355560        -9.6753
  68   1.0000      -0.352245        -9.5851
  69   1.0000      -0.351965        -9.5775
  70   1.0000      -0.336118        -9.1462
  71   1.0000      -0.332054        -9.0357
  72   1.0000      -0.331823        -9.0294
  73   1.0000      -0.330038        -8.9808
  74   1.0000      -0.326542        -8.8857
  75   1.0000      -0.322039        -8.7631
  76   1.0000      -0.321302        -8.7431
  77   1.0000      -0.296781        -8.0758
  78   1.0000      -0.276237        -7.5168
  79   1.0000      -0.267766        -7.2863
  80   1.0000      -0.260011        -7.0753
  81   1.0000      -0.257471        -7.0061
  82   1.0000      -0.250975        -6.8294
  83   1.0000      -0.211169        -5.7462
  84   0.0000      -0.086982        -2.3669
  85   0.0000      -0.051588        -1.4038
  86   0.0000      -0.014374        -0.3911
  87   0.0000      -0.010691        -0.2909
  88   0.0000       0.015734         0.4281

MULLIKEN ATOMIC CHARGES AND SPIN POPULATIONS
--------------------------------------------
   0 C :   -0.310833    0.093854
   1 C :   -0.388067   -0.062059
   2 C :   -0.005431    0.026852
   3 C :    0.490189    0.203127
   4 C :    0.377903   -0.139087
   5 C :   -0.438318    0.210954
   6 C :    0.415077   -0.095813
   7 C :    0.291927    0.220778
   8 C :   -0.397621   -0.110727
   9 H :    0.132418   -0.011366
  10 H :    0.132788    0.005157
  11 C :   -0.265319    0.692352
  12 H :    0.127153   -0.036089
  13 C :   -0.271661   -0.044678
  14 H :    0.153142    0.029244
  15 H :    0.152846    0.029038
  16 C :   -0.290241    0.002075
  17 H :    0.155267   -0.000148
  18 H :    0.155100   -0.000144
  19 C :   -0.510431   -0.000773
  20 H :    0.159817    0.000165
  21 H :    0.159802    0.000165
  22 C :   -0.387429   -0.016261
  23 H :    0.155612    0.010161
  24 H :    0.155634    0.010174
  25 C :   -0.270890    0.000890
  26 H :    0.142332    0.000177
  27 H :    0.142381    0.000177
  28 C :   -0.263349   -0.000237
  29 H :    0.145314    0.000041
  30 H :    0.145316    0.000041
  31 C :   -0.511552   -0.000084
  32 H :    0.159829    0.000022
  33 H :    0.159820    0.000022
  34 C :   -0.541723   -0.049703
  35 H :    0.184135    0.002014
  36 H :    0.146345   -0.000164
  37 H :    0.144855   -0.000005
  38 C :   -0.124897    0.028503
  39 C :   -0.100281   -0.013280
  40 C :   -0.281693    0.024896
  41 C :    0.594597   -0.019260
  42 C :   -0.276991    0.025228
  43 C :   -0.100610   -0.013283
  44 H :    0.107487   -0.001605
  45 H :    0.120054   -0.001343
  46 H :    0.106310    0.000649
  47 H :    0.106576    0.000646
  48 H :    0.117310   -0.001294
Sum of atomic charges         :   -0.0000000

LOEWDIN ATOMIC CHARGES AND SPIN POPULATIONS
-------------------------------------------
   0 C :   -0.035877    0.071791
   1 C :   -0.030031   -0.029413
   2 C :   -0.029284    0.013911
   3 C :   -0.052980    0.160217
   4 C :   -0.066356   -0.072814
   5 C :    0.010346    0.167103
   6 C :   -0.072597   -0.061322
   7 C :   -0.040062    0.173808
   8 C :   -0.009436   -0.065874
   9 H :    0.060226    0.001206
  10 H :    0.060845   -0.000589
  11 C :   -0.008061    0.571597
  12 H :    0.057033    0.004562
  13 C :   -0.082449    0.003436
  14 H :    0.054364    0.023945
  15 H :    0.054263    0.023760
  16 C :   -0.088026    0.000940
  17 H :    0.042136   -0.000046
  18 H :    0.042098   -0.000046
  19 C :   -0.077893   -0.000162
  20 H :    0.034427    0.000199
  21 H :    0.034427    0.000199
  22 C :   -0.044232    0.001621
  23 H :    0.059974    0.008103
  24 H :    0.059974    0.008111
  25 C :   -0.079752    0.000184
  26 H :    0.044509    0.000007
  27 H :    0.044525    0.000007
  28 C :   -0.089928   -0.000007
  29 H :    0.041093    0.000057
  30 H :    0.041093    0.000057
  31 C :   -0.078954   -0.000034
  32 H :    0.033992    0.000015
  33 H :    0.033991    0.000014
  34 C :   -0.060803   -0.040014
  35 H :    0.045243   -0.000239
  36 H :    0.032339   -0.000083
  37 H :    0.031635   -0.000006
  38 C :   -0.043091    0.022216
  39 C :   -0.043006   -0.008167
  40 C :   -0.016599    0.020078
  41 C :   -0.071794   -0.010623
  42 C :   -0.015457    0.020258
  43 C :   -0.042718   -0.008144
  44 H :    0.049060    0.000159
  45 H :    0.056047    0.000073
  46 H :    0.050273   -0.000061
  47 H :    0.050356   -0.000060
  48 H :    0.055122    0.000072

  Mayer bond orders larger than 0.100000
B(  0-C ,  1-C ) :   2.4731 B(  0-C , 41-C ) :   1.0190 B(  1-C ,  3-C ) :   0.8185
B(  1-C ,  4-C ) :   0.1005 B(  2-C ,  6-C ) :   0.9023 B(  2-C , 34-C ) :   2.7135
B(  3-C ,  4-C ) :   1.2565 B(  3-C ,  8-C ) :   1.4475 B(  4-C ,  5-C ) :   1.2424
B(  4-C ,  6-C ) :   0.1040 B(  4-C , 11-C ) :   1.2979 B(  5-C ,  6-C ) :   1.4780
B(  5-C ,  9-H ) :   0.9752 B(  5-C , 34-C ) :   0.1013 B(  6-C ,  7-C ) :   1.3123
B(  6-C ,  8-C ) :   0.1019 B(  7-C ,  8-C ) :   1.4230 B(  7-C , 22-C ) :   0.9423
B(  8-C , 10-H ) :   0.9714 B( 11-C , 12-H ) :   0.9808 B( 11-C , 13-C ) :   0.9990
B( 13-C , 14-H ) :   0.9562 B( 13-C , 15-H ) :   0.9560 B( 13-C , 16-C ) :   0.9819
B( 16-C , 17-H ) :   0.9724 B( 16-C , 18-H ) :   0.9722 B( 16-C , 19-C ) :   0.9617
B( 19-C , 20-H ) :   0.9727 B( 19-C , 21-H ) :   0.9728 B( 19-C , 36-H ) :   0.9674
B( 22-C , 23-H ) :   0.9597 B( 22-C , 24-H ) :   0.9597 B( 22-C , 25-C ) :   1.0195
B( 25-C , 26-H ) :   0.9614 B( 25-C , 27-H ) :   0.9615 B( 25-C , 28-C ) :   0.9857
B( 28-C , 29-H ) :   0.9716 B( 28-C , 30-H ) :   0.9716 B( 28-C , 31-C ) :   0.9541
B( 31-C , 32-H ) :   0.9730 B( 31-C , 33-H ) :   0.9730 B( 31-C , 37-H ) :   0.9676
B( 34-C , 35-H ) :   0.9833 B( 38-C , 39-C ) :   1.4534 B( 38-C , 40-C ) :   0.1010
B( 38-C , 43-C ) :   1.4517 B( 38-C , 44-H ) :   0.9653 B( 39-C , 40-C ) :   1.4784
B( 39-C , 46-H ) :   0.9765 B( 40-C , 41-C ) :   1.3827 B( 40-C , 48-H ) :   0.9807
B( 41-C , 42-C ) :   1.3804 B( 42-C , 43-C ) :   1.4781 B( 42-C , 45-H ) :   0.9820
B( 43-C , 47-H ) :   0.9757

FINAL SINGLE POINT ENERGY      -928.973267534757

DIPOLE MOMENT
-------------
                                X             Y             Z
Electronic contribution:     10.55789       2.03780      -0.01000
Nuclear contribution   :    -10.35096      -2.01389       0.01093
                        -----------------------------------------
Total Dipole Moment    :      0.20693       0.02391       0.00093
                        -----------------------------------------
Magnitude (a.u.)       :      0.20831
Magnitude (Debye)      :      0.52948

Rotational constants in cm-1:     0.006530     0.004261     0.002587
Rotational constants in MHz :   195.769552   127.726625    77.554936

CHEMICAL SHIELDING SUMMARY (ppm)  --  Orbital contribution
----------------------------------------------------------

  Nucleus  Element    Isotropic     Anisotropy
  -------  -------  ------------   ------------
      9       H           24.414         11.784
     10       H           24.582         13.133
     12       H           25.321         12.033
     14       H           29.372          4.566
     15       H           29.370          4.571
     17       H           30.066          6.719
     18       H           30.065          6.739
     20       H           30.966          8.161
     21       H           30.966          8.158
     23       H           29.089          5.812
     24       H           29.089          5.806
     26       H           30.223          4.850
     27       H           30.224          4.848
     29       H           30.358          6.559
     30       H           30.358          6.560
     32       H           30.947          7.988
     33       H           30.947          7.989
     35       H           28.651         10.905
     36       H           30.688         10.250
     37       H           30.716         10.483
     44       H           24.331          4.690
     45       H           24.081          7.934
     46       H           24.316          5.529
     47       H           24.307          5.357
     48       H           24.078          7.901

                             ****ORCA TERMINATED NORMALLY****
TOTAL RUN TIME: 0 days 1 hours 32 minutes 33 seconds 428 msec
