                         Program Version 5.0.4 -  RELEASE  -
|  1> ! B3LYP EPR-II AUTOAUX
|  2> %pal nprocs 16 end
|  3> *XYZFile 0 2 opt_EPRII.xyz
|  4> %EPRNMR
|  5>         GTENSOR   TRUE
|  6>         NUCLEI    = ALL H {SHIFT, AISO, ADIP, AORB}
|  7>         ORI       CenterOfElCharge
|  8> END
|  9>
| 10>                          ****END OF INPUT****

CARTESIAN COORDINATES (ANGSTROEM)
---------------------------------
  C      4.056806   -0.075107    0.000987
  C      2.831075   -0.015247   -0.001957
  C     -2.856691    0.022164   -0.006721
  C      1.407980    0.029084   -0.002965
  C      0.697313    1.290948   -0.002944
  C     -0.728576    1.222563   -0.004345
  C     -1.420228    0.007051   -0.005439
  C     -0.710323   -1.238279   -0.005176
  C      0.687725   -1.185075   -0.004073
  H     -1.303318    2.142043   -0.004518
  H      1.259191   -2.106067   -0.003982
  C      1.381871    2.529466   -0.001368
  H      2.468255    2.499461   -0.000331
  C      0.717227    3.880714   -0.001279
  H      0.060018    3.977204   -0.880187
  H      0.051519    3.973005    0.871605
  C      1.718912    5.050707    0.006459
  H      2.365529    4.963269    0.888934
  H      2.374398    4.967475   -0.869874
  C      1.030429    6.425729    0.006250
  H      0.390878    6.546562    0.887945
  H      0.399677    6.550691   -0.881193
  C     -1.485074   -2.545236   -0.006098
  H     -2.155575   -2.548390    0.864305
  H     -2.153450   -2.548476   -0.878141
  C     -0.652575   -3.836931   -0.004992
  H      0.004232   -3.859373   -0.884856
  H      0.002221   -3.859116    0.876378
  C     -1.531601   -5.100749   -0.005804
  H     -2.190977   -5.083335    0.872096
  H     -2.188855   -5.083689   -0.885299
  C     -0.710777   -6.402135   -0.004548
  H     -0.067506   -6.460952    0.880721
  H     -0.065250   -6.461228   -0.888154
  C     -4.077022    0.029148   -0.008538
  H     -5.142881    0.040087   -0.010481
  H      1.764520    7.237891    0.011791
  H     -1.360545   -7.283423   -0.005233
  C      8.306013   -0.328427    0.010363
  C      7.674297    0.927139    0.009003
  C      6.277793    1.016520    0.005896
  C      5.485015   -0.157854    0.004124
  C      6.130668   -1.419396    0.005474
  C      7.527661   -1.498777    0.008580
  H      9.390693   -0.394124    0.012778
  H      5.527121   -2.322182    0.004079
  H      8.270944    1.835618    0.010356
  H      8.010834   -2.472385    0.009608
  H      5.788588    1.986033    0.004828

 Total Charge           Charge          ....    0
 Multiplicity           Mult            ....    2
 Number of Electrons    NEL             ....  169
 Basis Dimension        Dim             ....  583

ORBITAL ENERGIES
----------------
                 SPIN UP ORBITALS
  NO   OCC          E(Eh)            E(eV)
   0   1.0000     -10.227903      -278.3154
   1   1.0000     -10.224930      -278.2345
   2   1.0000     -10.222889      -278.1789
   3   1.0000     -10.212572      -277.8982
   4   1.0000     -10.209275      -277.8085
   5   1.0000     -10.206631      -277.7365
   6   1.0000     -10.205380      -277.7025
   7   1.0000     -10.205083      -277.6944
   8   1.0000     -10.204899      -277.6894
   9   1.0000     -10.203996      -277.6648
  10   1.0000     -10.203808      -277.6597
  11   1.0000     -10.202874      -277.6343
  12   1.0000     -10.202727      -277.6303
  13   1.0000     -10.200095      -277.5587
  14   1.0000     -10.198373      -277.5118
  15   1.0000     -10.196892      -277.4715
  16   1.0000     -10.196825      -277.4697
  17   1.0000     -10.189003      -277.2569
  18   1.0000     -10.186598      -277.1914
  19   1.0000     -10.184302      -277.1289
  20   1.0000     -10.181039      -277.0402
  21   1.0000     -10.180672      -277.0302
  22   1.0000     -10.173220      -276.8274
  23   1.0000     -10.170789      -276.7613
  24   1.0000      -0.872023       -23.7290
  25   1.0000      -0.860438       -23.4137
  26   1.0000      -0.817968       -22.2580
  27   1.0000      -0.797737       -21.7075
  28   1.0000      -0.793280       -21.5862
  29   1.0000      -0.777338       -21.1524
  30   1.0000      -0.765795       -20.8384
  31   1.0000      -0.750112       -20.4116
  32   1.0000      -0.744530       -20.2597
  33   1.0000      -0.728972       -19.8363
  34   1.0000      -0.713795       -19.4234
  35   1.0000      -0.696550       -18.9541
  36   1.0000      -0.656243       -17.8573
  37   1.0000      -0.643877       -17.5208
  38   1.0000      -0.618412       -16.8279
  39   1.0000      -0.613104       -16.6834
  40   1.0000      -0.609344       -16.5811
  41   1.0000      -0.593384       -16.1468
  42   1.0000      -0.581408       -15.8209
  43   1.0000      -0.563285       -15.3278
  44   1.0000      -0.542173       -14.7533
  45   1.0000      -0.531334       -14.4583
  46   1.0000      -0.506752       -13.7894
  47   1.0000      -0.493208       -13.4209
  48   1.0000      -0.480994       -13.0885
  49   1.0000      -0.476298       -12.9607
  50   1.0000      -0.470885       -12.8134
  51   1.0000      -0.463759       -12.6195
  52   1.0000      -0.455064       -12.3829
  53   1.0000      -0.437643       -11.9089
  54   1.0000      -0.432467       -11.7680
  55   1.0000      -0.428719       -11.6660
  56   1.0000      -0.425600       -11.5812
  57   1.0000      -0.425259       -11.5719
  58   1.0000      -0.422411       -11.4944
  59   1.0000      -0.411693       -11.2027
  60   1.0000      -0.399560       -10.8726
  61   1.0000      -0.396925       -10.8009
  62   1.0000      -0.383672       -10.4402
  63   1.0000      -0.378690       -10.3047
  64   1.0000      -0.376470       -10.2443
  65   1.0000      -0.364828        -9.9275
  66   1.0000      -0.362636        -9.8678
  67   1.0000      -0.356410        -9.6984
  68   1.0000      -0.355186        -9.6651
  69   1.0000      -0.352136        -9.5821
  70   1.0000      -0.338475        -9.2104
  71   1.0000      -0.333621        -9.0783
  72   1.0000      -0.332546        -9.0490
  73   1.0000      -0.331944        -9.0327
  74   1.0000      -0.326910        -8.8957
  75   1.0000      -0.322759        -8.7827
  76   1.0000      -0.321945        -8.7606
  77   1.0000      -0.299636        -8.1535
  78   1.0000      -0.276278        -7.5179
  79   1.0000      -0.273454        -7.4411
  80   1.0000      -0.268181        -7.2976
  81   1.0000      -0.258474        -7.0334
  82   1.0000      -0.255878        -6.9628
  83   1.0000      -0.217438        -5.9168
  84   1.0000      -0.171701        -4.6722
  85   0.0000      -0.059454        -1.6178
  86   0.0000      -0.015782        -0.4295
  87   0.0000      -0.015202        -0.4137
  88   0.0000       0.009663         0.2629
  89   0.0000       0.015498         0.4217

                 SPIN DOWN ORBITALS
  NO   OCC          E(Eh)            E(eV)
   0   1.0000     -10.228257      -278.3250
   1   1.0000     -10.224533      -278.2237
   2   1.0000     -10.221559      -278.1428
   3   1.0000     -10.211734      -277.8754
   4   1.0000     -10.209158      -277.8053
   5   1.0000     -10.206195      -277.7247
   6   1.0000     -10.205044      -277.6934
   7   1.0000     -10.204786      -277.6864
   8   1.0000     -10.204562      -277.6803
   9   1.0000     -10.204120      -277.6682
  10   1.0000     -10.203858      -277.6611
  11   1.0000     -10.202322      -277.6193
  12   1.0000     -10.200222      -277.5622
  13   1.0000     -10.199642      -277.5464
  14   1.0000     -10.198422      -277.5132
  15   1.0000     -10.197559      -277.4897
  16   1.0000     -10.189653      -277.2745
  17   1.0000     -10.188582      -277.2454
  18   1.0000     -10.186791      -277.1967
  19   1.0000     -10.184266      -277.1280
  20   1.0000     -10.181037      -277.0401
  21   1.0000     -10.180673      -277.0302
  22   1.0000     -10.173230      -276.8277
  23   1.0000     -10.170791      -276.7613
  24   1.0000      -0.868734       -23.6394
  25   1.0000      -0.859979       -23.4012
  26   1.0000      -0.813172       -22.1275
  27   1.0000      -0.795154       -21.6372
  28   1.0000      -0.791870       -21.5479
  29   1.0000      -0.776520       -21.1302
  30   1.0000      -0.763834       -20.7850
  31   1.0000      -0.749758       -20.4019
  32   1.0000      -0.743552       -20.2331
  33   1.0000      -0.724955       -19.7270
  34   1.0000      -0.713073       -19.4037
  35   1.0000      -0.694411       -18.8959
  36   1.0000      -0.653145       -17.7730
  37   1.0000      -0.642659       -17.4876
  38   1.0000      -0.614902       -16.7323
  39   1.0000      -0.610152       -16.6031
  40   1.0000      -0.609108       -16.5747
  41   1.0000      -0.592498       -16.1227
  42   1.0000      -0.579763       -15.7762
  43   1.0000      -0.560856       -15.2617
  44   1.0000      -0.541597       -14.7376
  45   1.0000      -0.530148       -14.4261
  46   1.0000      -0.503584       -13.7032
  47   1.0000      -0.492295       -13.3960
  48   1.0000      -0.480063       -13.0632
  49   1.0000      -0.474942       -12.9238
  50   1.0000      -0.470046       -12.7906
  51   1.0000      -0.460460       -12.5297
  52   1.0000      -0.454854       -12.3772
  53   1.0000      -0.437165       -11.8959
  54   1.0000      -0.431378       -11.7384
  55   1.0000      -0.426465       -11.6047
  56   1.0000      -0.425390       -11.5754
  57   1.0000      -0.424157       -11.5419
  58   1.0000      -0.419960       -11.4277
  59   1.0000      -0.411309       -11.1923
  60   1.0000      -0.395792       -10.7701
  61   1.0000      -0.392250       -10.6737
  62   1.0000      -0.380688       -10.3590
  63   1.0000      -0.376370       -10.2415
  64   1.0000      -0.374199       -10.1825
  65   1.0000      -0.363680        -9.8962
  66   1.0000      -0.362254        -9.8574
  67   1.0000      -0.355558        -9.6752
  68   1.0000      -0.352244        -9.5850
  69   1.0000      -0.351967        -9.5775
  70   1.0000      -0.336117        -9.1462
  71   1.0000      -0.332054        -9.0356
  72   1.0000      -0.331823        -9.0294
  73   1.0000      -0.330036        -8.9807
  74   1.0000      -0.326541        -8.8856
  75   1.0000      -0.322038        -8.7631
  76   1.0000      -0.321300        -8.7430
  77   1.0000      -0.296781        -8.0758
  78   1.0000      -0.276238        -7.5168
  79   1.0000      -0.267765        -7.2863
  80   1.0000      -0.260008        -7.0752
  81   1.0000      -0.257473        -7.0062
  82   1.0000      -0.250974        -6.8293
  83   1.0000      -0.211168        -5.7462
  84   0.0000      -0.086979        -2.3668
  85   0.0000      -0.051587        -1.4038
  86   0.0000      -0.014376        -0.3912
  87   0.0000      -0.010690        -0.2909
  88   0.0000       0.015732         0.4281

MULLIKEN ATOMIC CHARGES AND SPIN POPULATIONS
--------------------------------------------
   0 C :   -0.310945    0.093870
   1 C :   -0.387928   -0.062075
   2 C :   -0.005376    0.026872
   3 C :    0.490151    0.203141
   4 C :    0.377933   -0.139095
   5 C :   -0.438329    0.210964
   6 C :    0.415102   -0.095825
   7 C :    0.291924    0.220793
   8 C :   -0.397612   -0.110741
   9 H :    0.132414   -0.011367
  10 H :    0.132788    0.005157
  11 C :   -0.265332    0.692349
  12 H :    0.127152   -0.036089
  13 C :   -0.271661   -0.044677
  14 H :    0.153142    0.029244
  15 H :    0.152846    0.029038
  16 C :   -0.290241    0.002075
  17 H :    0.155267   -0.000148
  18 H :    0.155100   -0.000144
  19 C :   -0.510430   -0.000773
  20 H :    0.159817    0.000165
  21 H :    0.159802    0.000165
  22 C :   -0.387429   -0.016264
  23 H :    0.155610    0.010161
  24 H :    0.155633    0.010175
  25 C :   -0.270894    0.000891
  26 H :    0.142332    0.000176
  27 H :    0.142381    0.000177
  28 C :   -0.263349   -0.000237
  29 H :    0.145314    0.000041
  30 H :    0.145316    0.000041
  31 C :   -0.511552   -0.000084
  32 H :    0.159829    0.000022
  33 H :    0.159820    0.000022
  34 C :   -0.541794   -0.049728
  35 H :    0.184138    0.002016
  36 H :    0.146344   -0.000164
  37 H :    0.144854   -0.000005
  38 C :   -0.124892    0.028514
  39 C :   -0.100288   -0.013290
  40 C :   -0.281690    0.024907
  41 C :    0.594589   -0.019271
  42 C :   -0.276990    0.025239
  43 C :   -0.100614   -0.013292
  44 H :    0.107488   -0.001606
  45 H :    0.120057   -0.001344
  46 H :    0.106311    0.000649
  47 H :    0.106577    0.000646
  48 H :    0.117312   -0.001295
Sum of atomic charges         :   -0.0000000

LOEWDIN ATOMIC CHARGES AND SPIN POPULATIONS
-------------------------------------------
   0 C :   -0.035927    0.071803
   1 C :   -0.029982   -0.029425
   2 C :   -0.029247    0.013925
   3 C :   -0.052961    0.160225
   4 C :   -0.066350   -0.072819
   5 C :    0.010345    0.167110
   6 C :   -0.072590   -0.061330
   7 C :   -0.040060    0.173815
   8 C :   -0.009431   -0.065882
   9 H :    0.060225    0.001206
  10 H :    0.060843   -0.000589
  11 C :   -0.008068    0.571594
  12 H :    0.057032    0.004562
  13 C :   -0.082451    0.003436
  14 H :    0.054364    0.023945
  15 H :    0.054263    0.023760
  16 C :   -0.088026    0.000940
  17 H :    0.042136   -0.000046
  18 H :    0.042098   -0.000046
  19 C :   -0.077892   -0.000162
  20 H :    0.034427    0.000199
  21 H :    0.034427    0.000199
  22 C :   -0.044232    0.001620
  23 H :    0.059973    0.008103
  24 H :    0.059973    0.008111
  25 C :   -0.079753    0.000184
  26 H :    0.044509    0.000007
  27 H :    0.044525    0.000007
  28 C :   -0.089929   -0.000007
  29 H :    0.041093    0.000057
  30 H :    0.041092    0.000057
  31 C :   -0.078954   -0.000034
  32 H :    0.033991    0.000015
  33 H :    0.033991    0.000014
  34 C :   -0.060849   -0.040032
  35 H :    0.045243   -0.000239
  36 H :    0.032339   -0.000083
  37 H :    0.031634   -0.000006
  38 C :   -0.043092    0.022224
  39 C :   -0.043005   -0.008173
  40 C :   -0.016606    0.020085
  41 C :   -0.071805   -0.010629
  42 C :   -0.015460    0.020265
  43 C :   -0.042714   -0.008150
  44 H :    0.049060    0.000159
  45 H :    0.056048    0.000073
  46 H :    0.050274   -0.000061
  47 H :    0.050357   -0.000060
  48 H :    0.055123    0.000071

  Mayer bond orders larger than 0.100000
B(  0-C ,  1-C ) :   2.4732 B(  0-C , 41-C ) :   1.0189 B(  1-C ,  3-C ) :   0.8186
B(  1-C ,  4-C ) :   0.1005 B(  2-C ,  6-C ) :   0.9023 B(  2-C , 34-C ) :   2.7135
B(  3-C ,  4-C ) :   1.2565 B(  3-C ,  8-C ) :   1.4475 B(  4-C ,  5-C ) :   1.2424
B(  4-C ,  6-C ) :   0.1040 B(  4-C , 11-C ) :   1.2979 B(  5-C ,  6-C ) :   1.4780
B(  5-C ,  9-H ) :   0.9752 B(  5-C , 34-C ) :   0.1013 B(  6-C ,  7-C ) :   1.3122
B(  6-C ,  8-C ) :   0.1019 B(  7-C ,  8-C ) :   1.4230 B(  7-C , 22-C ) :   0.9423
B(  8-C , 10-H ) :   0.9713 B( 11-C , 12-H ) :   0.9808 B( 11-C , 13-C ) :   0.9990
B( 13-C , 14-H ) :   0.9562 B( 13-C , 15-H ) :   0.9560 B( 13-C , 16-C ) :   0.9819
B( 16-C , 17-H ) :   0.9724 B( 16-C , 18-H ) :   0.9722 B( 16-C , 19-C ) :   0.9617
B( 19-C , 20-H ) :   0.9727 B( 19-C , 21-H ) :   0.9728 B( 19-C , 36-H ) :   0.9674
B( 22-C , 23-H ) :   0.9597 B( 22-C , 24-H ) :   0.9598 B( 22-C , 25-C ) :   1.0195
B( 25-C , 26-H ) :   0.9614 B( 25-C , 27-H ) :   0.9615 B( 25-C , 28-C ) :   0.9857
B( 28-C , 29-H ) :   0.9716 B( 28-C , 30-H ) :   0.9716 B( 28-C , 31-C ) :   0.9541
B( 31-C , 32-H ) :   0.9730 B( 31-C , 33-H ) :   0.9730 B( 31-C , 37-H ) :   0.9676
B( 34-C , 35-H ) :   0.9833 B( 38-C , 39-C ) :   1.4534 B( 38-C , 40-C ) :   0.1010
B( 38-C , 43-C ) :   1.4517 B( 38-C , 44-H ) :   0.9653 B( 39-C , 40-C ) :   1.4784
B( 39-C , 46-H ) :   0.9765 B( 40-C , 41-C ) :   1.3827 B( 40-C , 48-H ) :   0.9807
B( 41-C , 42-C ) :   1.3804 B( 42-C , 43-C ) :   1.4781 B( 42-C , 45-H ) :   0.9820
B( 43-C , 47-H ) :   0.9757

FINAL SINGLE POINT ENERGY      -928.973267436493

DIPOLE MOMENT
-------------
                                X             Y             Z
Electronic contribution:     10.55785       2.03776      -0.01000
Nuclear contribution   :    -10.35096      -2.01389       0.01093
                        -----------------------------------------
Total Dipole Moment    :      0.20689       0.02387       0.00093
                        -----------------------------------------
Magnitude (a.u.)       :      0.20826
Magnitude (Debye)      :      0.52936

Rotational constants in cm-1:     0.006530     0.004261     0.002587
Rotational constants in MHz :   195.769552   127.726625    77.554936

CHEMICAL SHIELDING SUMMARY (ppm)  --  Orbital contribution
----------------------------------------------------------

  Nucleus  Element    Isotropic     Anisotropy
  -------  -------  ------------   ------------
      9       H           29.611         30.355
     10       H           99.325         12.302
     12       H          100.007         14.551
     14       H           46.652         31.405
     15       H           46.827         31.212
     17       H           58.825         19.007
     18       H           58.637         18.937
     20       H            4.812         22.816
     21       H            4.660         22.927
     23       H           29.083         50.687
     24       H           29.005         50.703
     26       H          101.438         14.896
     27       H          101.533         14.865
     29       H            0.924         31.030
     30       H            0.841         31.046
     32       H           46.638         12.107
     33       H           46.574         12.126
     35       H          -97.776       -109.257
     36       H          -45.120         25.076
     37       H          -76.618        -69.567
     44       H         -126.357       -177.152
     45       H           92.425         19.687
     46       H          -58.577         -0.863
     47       H          -51.235          1.881
     48       H           84.603         21.168

                             ****ORCA TERMINATED NORMALLY****
TOTAL RUN TIME: 0 days 1 hours 30 minutes 19 seconds 624 msec
