                         Program Version 5.0.4 -  RELEASE  -
|  1> ! B3LYP EPR-II AUTOAUX
|  2> %pal nprocs 16 end
|  3> *XYZFile 0 2 opt.xyz
|  4> %EPRNMR
|  5>         GTENSOR   TRUE
|  6>         NUCLEI    = ALL H {SHIFT, AISO, ADIP, AORB}
|  7> END
|  8>
|  9>                          ****END OF INPUT****

CARTESIAN COORDINATES (ANGSTROEM)
---------------------------------
  C      4.055651   -0.073547    0.001259
  C      2.833542   -0.006600   -0.001853
  C     -2.844938    0.019403   -0.004605
  C      1.413420    0.037578   -0.002650
  C      0.700732    1.295437   -0.002274
  C     -0.721501    1.219563   -0.002939
  C     -1.411453    0.007143   -0.003953
  C     -0.698523   -1.233355   -0.004352
  C      0.695582   -1.174421   -0.003778
  H     -1.303965    2.141141   -0.002676
  H      1.274536   -2.097754   -0.004091
  C      1.376735    2.533606   -0.001170
  H      2.469590    2.505778   -0.000846
  C      0.711209    3.877604   -0.000569
  H      0.041247    3.969721   -0.880342
  H      0.037271    3.967005    0.876408
  C      1.701375    5.049653    0.003518
  H      2.358700    4.962416    0.887902
  H      2.362825    4.965169   -0.878056
  C      1.013980    6.416414    0.004035
  H      0.370653    6.541162    0.892218
  H      0.374821    6.543928   -0.886762
  C     -1.466096   -2.538946   -0.005338
  H     -2.145195   -2.541193    0.867755
  H     -2.144376   -2.540390   -0.879069
  C     -0.640631   -3.828188   -0.005524
  H      0.023196   -3.849353   -0.889420
  H      0.022302   -3.850153    0.879024
  C     -1.515380   -5.087922   -0.006538
  H     -2.182257   -5.068236    0.875347
  H     -2.181205   -5.067554   -0.889201
  C     -0.702663   -6.385165   -0.006558
  H     -0.052972   -6.450617    0.883324
  H     -0.051766   -6.449835   -0.895614
  C     -4.060832    0.033276   -0.006062
  H     -5.133143    0.050044   -0.008099
  H      1.748932    7.237402    0.007037
  H     -1.357003   -7.272006   -0.007390
  C      8.290611   -0.349909    0.011621
  C      7.669126    0.904242    0.011288
  C      6.278191    1.001489    0.007860
  C      5.479290   -0.163666    0.004675
  C      6.117697   -1.424276    0.005036
  C      7.509166   -1.511211    0.008484
  H      9.380725   -0.422104    0.014310
  H      5.506205   -2.328550    0.002590
  H      8.273734    1.814420    0.013750
  H      7.988600   -2.493123    0.008723
  H      5.792435    1.979098    0.007626

 Total Charge           Charge          ....    0
 Multiplicity           Mult            ....    2
 Number of Electrons    NEL             ....  169
 Basis Dimension        Dim             ....  583

ORBITAL ENERGIES
----------------
                 SPIN UP ORBITALS
  NO   OCC          E(Eh)            E(eV)
   0   1.0000     -10.226539      -278.2783
   1   1.0000     -10.223934      -278.2074
   2   1.0000     -10.221919      -278.1526
   3   1.0000     -10.211738      -277.8755
   4   1.0000     -10.208272      -277.7812
   5   1.0000     -10.205600      -277.7085
   6   1.0000     -10.204761      -277.6857
   7   1.0000     -10.204512      -277.6789
   8   1.0000     -10.204366      -277.6749
   9   1.0000     -10.203418      -277.6491
  10   1.0000     -10.203244      -277.6444
  11   1.0000     -10.202252      -277.6174
  12   1.0000     -10.201801      -277.6051
  13   1.0000     -10.199070      -277.5308
  14   1.0000     -10.198249      -277.5085
  15   1.0000     -10.196691      -277.4661
  16   1.0000     -10.196406      -277.4583
  17   1.0000     -10.190099      -277.2867
  18   1.0000     -10.187552      -277.2174
  19   1.0000     -10.185581      -277.1638
  20   1.0000     -10.182255      -277.0733
  21   1.0000     -10.181984      -277.0659
  22   1.0000     -10.175411      -276.8870
  23   1.0000     -10.173038      -276.8224
  24   1.0000      -0.873574       -23.7712
  25   1.0000      -0.862725       -23.4759
  26   1.0000      -0.819282       -22.2938
  27   1.0000      -0.798834       -21.7374
  28   1.0000      -0.794329       -21.6148
  29   1.0000      -0.778593       -21.1866
  30   1.0000      -0.766627       -20.8610
  31   1.0000      -0.750787       -20.4300
  32   1.0000      -0.745514       -20.2865
  33   1.0000      -0.729524       -19.8514
  34   1.0000      -0.714393       -19.4396
  35   1.0000      -0.696600       -18.9555
  36   1.0000      -0.655949       -17.8493
  37   1.0000      -0.644367       -17.5341
  38   1.0000      -0.617640       -16.8068
  39   1.0000      -0.612997       -16.6805
  40   1.0000      -0.609016       -16.5722
  41   1.0000      -0.592375       -16.1193
  42   1.0000      -0.579759       -15.7761
  43   1.0000      -0.561938       -15.2911
  44   1.0000      -0.542128       -14.7521
  45   1.0000      -0.530751       -14.4425
  46   1.0000      -0.506865       -13.7925
  47   1.0000      -0.492945       -13.4137
  48   1.0000      -0.480212       -13.0672
  49   1.0000      -0.476419       -12.9640
  50   1.0000      -0.470031       -12.7902
  51   1.0000      -0.462699       -12.5907
  52   1.0000      -0.456509       -12.4222
  53   1.0000      -0.436993       -11.8912
  54   1.0000      -0.432349       -11.7648
  55   1.0000      -0.429267       -11.6809
  56   1.0000      -0.425668       -11.5830
  57   1.0000      -0.424799       -11.5594
  58   1.0000      -0.421496       -11.4695
  59   1.0000      -0.411384       -11.1943
  60   1.0000      -0.398740       -10.8503
  61   1.0000      -0.397525       -10.8172
  62   1.0000      -0.383935       -10.4474
  63   1.0000      -0.378568       -10.3014
  64   1.0000      -0.377031       -10.2595
  65   1.0000      -0.364774        -9.9260
  66   1.0000      -0.362090        -9.8530
  67   1.0000      -0.356566        -9.7027
  68   1.0000      -0.353684        -9.6242
  69   1.0000      -0.351210        -9.5569
  70   1.0000      -0.339708        -9.2439
  71   1.0000      -0.332618        -9.0510
  72   1.0000      -0.331918        -9.0319
  73   1.0000      -0.331246        -9.0137
  74   1.0000      -0.326918        -8.8959
  75   1.0000      -0.323045        -8.7905
  76   1.0000      -0.320805        -8.7295
  77   1.0000      -0.300373        -8.1736
  78   1.0000      -0.276954        -7.5363
  79   1.0000      -0.273436        -7.4406
  80   1.0000      -0.268474        -7.3056
  81   1.0000      -0.259075        -7.0498
  82   1.0000      -0.256407        -6.9772
  83   1.0000      -0.217625        -5.9219
  84   1.0000      -0.171332        -4.6622
  85   0.0000      -0.058911        -1.6031
  86   0.0000      -0.014849        -0.4041
  87   0.0000      -0.014058        -0.3825
  88   0.0000       0.010620         0.2890
  89   0.0000       0.015207         0.4138

                 SPIN DOWN ORBITALS
  NO   OCC          E(Eh)            E(eV)
   0   1.0000     -10.226885      -278.2877
   1   1.0000     -10.223543      -278.1967
   2   1.0000     -10.220575      -278.1160
   3   1.0000     -10.210706      -277.8474
   4   1.0000     -10.208340      -277.7830
   5   1.0000     -10.205188      -277.6973
   6   1.0000     -10.204442      -277.6770
   7   1.0000     -10.204230      -277.6712
   8   1.0000     -10.204011      -277.6653
   9   1.0000     -10.203536      -277.6523
  10   1.0000     -10.203292      -277.6457
  11   1.0000     -10.201312      -277.5918
  12   1.0000     -10.199189      -277.5340
  13   1.0000     -10.199133      -277.5325
  14   1.0000     -10.197983      -277.5012
  15   1.0000     -10.197332      -277.4835
  16   1.0000     -10.190754      -277.3045
  17   1.0000     -10.188510      -277.2434
  18   1.0000     -10.187748      -277.2227
  19   1.0000     -10.185544      -277.1628
  20   1.0000     -10.182253      -277.0732
  21   1.0000     -10.181984      -277.0659
  22   1.0000     -10.175420      -276.8873
  23   1.0000     -10.173040      -276.8225
  24   1.0000      -0.870279       -23.6815
  25   1.0000      -0.862263       -23.4634
  26   1.0000      -0.814459       -22.1626
  27   1.0000      -0.796213       -21.6661
  28   1.0000      -0.792950       -21.5773
  29   1.0000      -0.777774       -21.1643
  30   1.0000      -0.764663       -20.8075
  31   1.0000      -0.750433       -20.4203
  32   1.0000      -0.744528       -20.2596
  33   1.0000      -0.725482       -19.7414
  34   1.0000      -0.713673       -19.4200
  35   1.0000      -0.694402       -18.8956
  36   1.0000      -0.652890       -17.7660
  37   1.0000      -0.643131       -17.5005
  38   1.0000      -0.614746       -16.7281
  39   1.0000      -0.609497       -16.5853
  40   1.0000      -0.608763       -16.5653
  41   1.0000      -0.591472       -16.0948
  42   1.0000      -0.578129       -15.7317
  43   1.0000      -0.559601       -15.2275
  44   1.0000      -0.541579       -14.7371
  45   1.0000      -0.529516       -14.4089
  46   1.0000      -0.503646       -13.7049
  47   1.0000      -0.492074       -13.3900
  48   1.0000      -0.479122       -13.0376
  49   1.0000      -0.475257       -12.9324
  50   1.0000      -0.469168       -12.7667
  51   1.0000      -0.459321       -12.4988
  52   1.0000      -0.456299       -12.4165
  53   1.0000      -0.436531       -11.8786
  54   1.0000      -0.430759       -11.7216
  55   1.0000      -0.427550       -11.6342
  56   1.0000      -0.424812       -11.5597
  57   1.0000      -0.424335       -11.5467
  58   1.0000      -0.418886       -11.3985
  59   1.0000      -0.410945       -11.1824
  60   1.0000      -0.396428       -10.7874
  61   1.0000      -0.391269       -10.6470
  62   1.0000      -0.381266       -10.3748
  63   1.0000      -0.376259       -10.2385
  64   1.0000      -0.374429       -10.1887
  65   1.0000      -0.363617        -9.8945
  66   1.0000      -0.361696        -9.8423
  67   1.0000      -0.355685        -9.6787
  68   1.0000      -0.351040        -9.5523
  69   1.0000      -0.350674        -9.5423
  70   1.0000      -0.337385        -9.1807
  71   1.0000      -0.332108        -9.0371
  72   1.0000      -0.330211        -8.9855
  73   1.0000      -0.329084        -8.9548
  74   1.0000      -0.326566        -8.8863
  75   1.0000      -0.322349        -8.7716
  76   1.0000      -0.320242        -8.7142
  77   1.0000      -0.297593        -8.0979
  78   1.0000      -0.276907        -7.5350
  79   1.0000      -0.268053        -7.2941
  80   1.0000      -0.260182        -7.0799
  81   1.0000      -0.258075        -7.0226
  82   1.0000      -0.251410        -6.8412
  83   1.0000      -0.211361        -5.7514
  84   0.0000      -0.086951        -2.3661
  85   0.0000      -0.051033        -1.3887
  86   0.0000      -0.013232        -0.3601
  87   0.0000      -0.009771        -0.2659
  88   0.0000       0.015444         0.4203

MULLIKEN ATOMIC CHARGES AND SPIN POPULATIONS
--------------------------------------------
   0 C :   -0.310911    0.093137
   1 C :   -0.391535   -0.061269
   2 C :    0.000669    0.025614
   3 C :    0.495986    0.202237
   4 C :    0.381088   -0.136772
   5 C :   -0.442030    0.209326
   6 C :    0.416823   -0.094252
   7 C :    0.301061    0.219272
   8 C :   -0.403534   -0.109141
   9 H :    0.130362   -0.011379
  10 H :    0.130957    0.005115
  11 C :   -0.261795    0.687556
  12 H :    0.125683   -0.036139
  13 C :   -0.267825   -0.045291
  14 H :    0.150478    0.030635
  15 H :    0.150338    0.030525
  16 C :   -0.282564    0.002136
  17 H :    0.152456   -0.000170
  18 H :    0.152392   -0.000168
  19 C :   -0.507549   -0.000752
  20 H :    0.157661    0.000175
  21 H :    0.157656    0.000175
  22 C :   -0.385129   -0.016425
  23 H :    0.153045    0.010618
  24 H :    0.153044    0.010623
  25 C :   -0.265309    0.000902
  26 H :    0.139457    0.000183
  27 H :    0.139474    0.000183
  28 C :   -0.254653   -0.000229
  29 H :    0.142367    0.000042
  30 H :    0.142370    0.000042
  31 C :   -0.508720   -0.000085
  32 H :    0.157679    0.000025
  33 H :    0.157673    0.000025
  34 C :   -0.546968   -0.048176
  35 H :    0.182841    0.001953
  36 H :    0.144710   -0.000166
  37 H :    0.143216   -0.000005
  38 C :   -0.123231    0.027995
  39 C :   -0.098614   -0.012813
  40 C :   -0.283446    0.024428
  41 C :    0.601837   -0.018685
  42 C :   -0.277336    0.024748
  43 C :   -0.099671   -0.012817
  44 H :    0.105715   -0.001583
  45 H :    0.118384   -0.001324
  46 H :    0.104729    0.000625
  47 H :    0.105004    0.000622
  48 H :    0.115668   -0.001276
Sum of atomic charges         :   -0.0000000

LOEWDIN ATOMIC CHARGES AND SPIN POPULATIONS
-------------------------------------------
   0 C :   -0.035235    0.071083
   1 C :   -0.029779   -0.028514
   2 C :   -0.030437    0.013025
   3 C :   -0.053638    0.159443
   4 C :   -0.067929   -0.070967
   5 C :    0.009291    0.165814
   6 C :   -0.073389   -0.060193
   7 C :   -0.041753    0.172710
   8 C :   -0.010841   -0.064544
   9 H :    0.062553    0.001053
  10 H :    0.063258   -0.000506
  11 C :   -0.010800    0.567603
  12 H :    0.059973    0.003952
  13 C :   -0.087346    0.003475
  14 H :    0.056919    0.024972
  15 H :    0.056868    0.024874
  16 C :   -0.094070    0.000971
  17 H :    0.044806   -0.000064
  18 H :    0.044789   -0.000064
  19 C :   -0.084075   -0.000126
  20 H :    0.036801    0.000213
  21 H :    0.036801    0.000213
  22 C :   -0.048482    0.001649
  23 H :    0.062506    0.008440
  24 H :    0.062506    0.008441
  25 C :   -0.084578    0.000184
  26 H :    0.046940    0.000008
  27 H :    0.046945    0.000008
  28 C :   -0.095809    0.000008
  29 H :    0.043679    0.000060
  30 H :    0.043679    0.000060
  31 C :   -0.085116   -0.000032
  32 H :    0.036352    0.000016
  33 H :    0.036352    0.000016
  34 C :   -0.062558   -0.038817
  35 H :    0.048814   -0.000196
  36 H :    0.034588   -0.000082
  37 H :    0.033882   -0.000006
  38 C :   -0.045637    0.021834
  39 C :   -0.045606   -0.007810
  40 C :   -0.018163    0.019730
  41 C :   -0.073496   -0.010190
  42 C :   -0.017073    0.019901
  43 C :   -0.045348   -0.007787
  44 H :    0.051529    0.000137
  45 H :    0.058358    0.000054
  46 H :    0.052721   -0.000052
  47 H :    0.052798   -0.000051
  48 H :    0.057452    0.000053

  Mayer bond orders larger than 0.100000
B(  0-C ,  1-C ) :   2.4714 B(  0-C ,  3-C ) :   0.1029 B(  0-C , 41-C ) :   1.0214
B(  1-C ,  3-C ) :   0.8157 B(  1-C ,  4-C ) :   0.1044 B(  2-C ,  6-C ) :   0.9055
B(  2-C , 34-C ) :   2.7078 B(  3-C ,  4-C ) :   1.2590 B(  3-C ,  7-C ) :   0.1040
B(  3-C ,  8-C ) :   1.4496 B(  4-C ,  5-C ) :   1.2394 B(  4-C ,  6-C ) :   0.1082
B(  4-C , 11-C ) :   1.3016 B(  5-C ,  6-C ) :   1.4801 B(  5-C ,  9-H ) :   0.9762
B(  5-C , 34-C ) :   0.1027 B(  6-C ,  7-C ) :   1.3140 B(  6-C ,  8-C ) :   0.1038
B(  7-C ,  8-C ) :   1.4230 B(  7-C , 22-C ) :   0.9426 B(  8-C , 10-H ) :   0.9727
B( 11-C , 12-H ) :   0.9813 B( 11-C , 13-C ) :   1.0012 B( 13-C , 14-H ) :   0.9551
B( 13-C , 15-H ) :   0.9550 B( 13-C , 16-C ) :   0.9825 B( 16-C , 17-H ) :   0.9721
B( 16-C , 18-H ) :   0.9720 B( 16-C , 19-C ) :   0.9615 B( 19-C , 20-H ) :   0.9727
B( 19-C , 21-H ) :   0.9727 B( 19-C , 36-H ) :   0.9672 B( 22-C , 23-H ) :   0.9595
B( 22-C , 24-H ) :   0.9595 B( 22-C , 25-C ) :   1.0209 B( 25-C , 26-H ) :   0.9606
B( 25-C , 27-H ) :   0.9606 B( 25-C , 28-C ) :   0.9875 B( 28-C , 29-H ) :   0.9710
B( 28-C , 30-H ) :   0.9710 B( 28-C , 31-C ) :   0.9538 B( 31-C , 32-H ) :   0.9730
B( 31-C , 33-H ) :   0.9730 B( 31-C , 37-H ) :   0.9675 B( 34-C , 35-H ) :   0.9843
B( 38-C , 39-C ) :   1.4532 B( 38-C , 40-C ) :   0.1035 B( 38-C , 42-C ) :   0.1005
B( 38-C , 43-C ) :   1.4515 B( 38-C , 44-H ) :   0.9658 B( 39-C , 40-C ) :   1.4781
B( 39-C , 46-H ) :   0.9770 B( 40-C , 41-C ) :   1.3838 B( 40-C , 48-H ) :   0.9816
B( 41-C , 42-C ) :   1.3801 B( 42-C , 43-C ) :   1.4779 B( 42-C , 45-H ) :   0.9828
B( 43-C , 47-H ) :   0.9763

FINAL SINGLE POINT ENERGY      -928.972107984922

DIPOLE MOMENT
-------------
                                X             Y             Z
Electronic contribution:     10.59139       2.02065       0.00519
Nuclear contribution   :    -10.39741      -1.99660      -0.00444
                        -----------------------------------------
Total Dipole Moment    :      0.19398       0.02405       0.00074
                        -----------------------------------------
Magnitude (a.u.)       :      0.19546
Magnitude (Debye)      :      0.49683

Rotational constants in cm-1:     0.006531     0.004289     0.002597
Rotational constants in MHz :   195.785594   128.568523    77.869221

CHEMICAL SHIELDING SUMMARY (ppm)  --  Orbital contribution
----------------------------------------------------------

  Nucleus  Element    Isotropic     Anisotropy
  -------  -------  ------------   ------------
      9       H           24.373         11.753
     10       H           24.531         13.070
     12       H           25.257         11.964
     14       H           29.163          4.535
     15       H           29.162          4.535
     17       H           29.857          6.676
     18       H           29.856          6.682
     20       H           30.725          8.092
     21       H           30.724          8.091
     23       H           28.898          5.767
     24       H           28.898          5.766
     26       H           30.036          4.813
     27       H           30.036          4.814
     29       H           30.143          6.509
     30       H           30.143          6.510
     32       H           30.701          7.925
     33       H           30.701          7.925
     35       H           28.511         10.861
     36       H           30.450         10.120
     37       H           30.474         10.357
     44       H           24.322          4.589
     45       H           24.061          7.845
     46       H           24.307          5.417
     47       H           24.296          5.262
     48       H           24.059          7.816

                             ****ORCA TERMINATED NORMALLY****
TOTAL RUN TIME: 0 days 1 hours 30 minutes 22 seconds 211 msec
