                         Program Version 5.0.4 -  RELEASE  -
|  1> ! B3LYP EPR-II AUTOAUX
|  2> %pal nprocs 16 end
|  3> *XYZFile 0 2 opt.xyz
|  4> %EPRNMR
|  5>         GTENSOR   TRUE
|  6>         NUCLEI    = ALL H {SHIFT, AISO, ADIP, AORB}
|  7>         ORI       GIAO
|  8> END
|  9>
| 10>                          ****END OF INPUT****

CARTESIAN COORDINATES (ANGSTROEM)
---------------------------------
  C      4.055651   -0.073547    0.001259
  C      2.833542   -0.006600   -0.001853
  C     -2.844938    0.019403   -0.004605
  C      1.413420    0.037578   -0.002650
  C      0.700732    1.295437   -0.002274
  C     -0.721501    1.219563   -0.002939
  C     -1.411453    0.007143   -0.003953
  C     -0.698523   -1.233355   -0.004352
  C      0.695582   -1.174421   -0.003778
  H     -1.303965    2.141141   -0.002676
  H      1.274536   -2.097754   -0.004091
  C      1.376735    2.533606   -0.001170
  H      2.469590    2.505778   -0.000846
  C      0.711209    3.877604   -0.000569
  H      0.041247    3.969721   -0.880342
  H      0.037271    3.967005    0.876408
  C      1.701375    5.049653    0.003518
  H      2.358700    4.962416    0.887902
  H      2.362825    4.965169   -0.878056
  C      1.013980    6.416414    0.004035
  H      0.370653    6.541162    0.892218
  H      0.374821    6.543928   -0.886762
  C     -1.466096   -2.538946   -0.005338
  H     -2.145195   -2.541193    0.867755
  H     -2.144376   -2.540390   -0.879069
  C     -0.640631   -3.828188   -0.005524
  H      0.023196   -3.849353   -0.889420
  H      0.022302   -3.850153    0.879024
  C     -1.515380   -5.087922   -0.006538
  H     -2.182257   -5.068236    0.875347
  H     -2.181205   -5.067554   -0.889201
  C     -0.702663   -6.385165   -0.006558
  H     -0.052972   -6.450617    0.883324
  H     -0.051766   -6.449835   -0.895614
  C     -4.060832    0.033276   -0.006062
  H     -5.133143    0.050044   -0.008099
  H      1.748932    7.237402    0.007037
  H     -1.357003   -7.272006   -0.007390
  C      8.290611   -0.349909    0.011621
  C      7.669126    0.904242    0.011288
  C      6.278191    1.001489    0.007860
  C      5.479290   -0.163666    0.004675
  C      6.117697   -1.424276    0.005036
  C      7.509166   -1.511211    0.008484
  H      9.380725   -0.422104    0.014310
  H      5.506205   -2.328550    0.002590
  H      8.273734    1.814420    0.013750
  H      7.988600   -2.493123    0.008723
  H      5.792435    1.979098    0.007626

 Total Charge           Charge          ....    0
 Multiplicity           Mult            ....    2
 Number of Electrons    NEL             ....  169
 Basis Dimension        Dim             ....  583

ORBITAL ENERGIES
----------------
                 SPIN UP ORBITALS
  NO   OCC          E(Eh)            E(eV)
   0   1.0000     -10.226667      -278.2818
   1   1.0000     -10.223989      -278.2089
   2   1.0000     -10.221856      -278.1508
   3   1.0000     -10.211634      -277.8727
   4   1.0000     -10.208345      -277.7832
   5   1.0000     -10.205645      -277.7097
   6   1.0000     -10.204869      -277.6886
   7   1.0000     -10.204562      -277.6802
   8   1.0000     -10.204314      -277.6735
   9   1.0000     -10.203405      -277.6488
  10   1.0000     -10.203210      -277.6435
  11   1.0000     -10.202329      -277.6195
  12   1.0000     -10.201976      -277.6099
  13   1.0000     -10.199212      -277.5347
  14   1.0000     -10.198306      -277.5100
  15   1.0000     -10.196688      -277.4660
  16   1.0000     -10.196434      -277.4591
  17   1.0000     -10.190131      -277.2876
  18   1.0000     -10.187500      -277.2160
  19   1.0000     -10.185583      -277.1638
  20   1.0000     -10.182255      -277.0733
  21   1.0000     -10.181979      -277.0657
  22   1.0000     -10.175377      -276.8861
  23   1.0000     -10.172985      -276.8210
  24   1.0000      -0.873586       -23.7715
  25   1.0000      -0.862764       -23.4770
  26   1.0000      -0.819291       -22.2941
  27   1.0000      -0.798872       -21.7384
  28   1.0000      -0.794323       -21.6146
  29   1.0000      -0.778629       -21.1876
  30   1.0000      -0.766629       -20.8610
  31   1.0000      -0.750813       -20.4307
  32   1.0000      -0.745537       -20.2871
  33   1.0000      -0.729524       -19.8514
  34   1.0000      -0.714443       -19.4410
  35   1.0000      -0.696602       -18.9555
  36   1.0000      -0.655952       -17.8494
  37   1.0000      -0.644391       -17.5348
  38   1.0000      -0.617649       -16.8071
  39   1.0000      -0.613023       -16.6812
  40   1.0000      -0.609040       -16.5728
  41   1.0000      -0.592382       -16.1195
  42   1.0000      -0.579759       -15.7760
  43   1.0000      -0.561944       -15.2913
  44   1.0000      -0.542157       -14.7529
  45   1.0000      -0.530763       -14.4428
  46   1.0000      -0.506885       -13.7931
  47   1.0000      -0.492952       -13.4139
  48   1.0000      -0.480233       -13.0678
  49   1.0000      -0.476436       -12.9645
  50   1.0000      -0.470015       -12.7898
  51   1.0000      -0.462708       -12.5909
  52   1.0000      -0.456535       -12.4230
  53   1.0000      -0.437012       -11.8917
  54   1.0000      -0.432364       -11.7652
  55   1.0000      -0.429277       -11.6812
  56   1.0000      -0.425672       -11.5831
  57   1.0000      -0.424819       -11.5599
  58   1.0000      -0.421476       -11.4689
  59   1.0000      -0.411379       -11.1942
  60   1.0000      -0.398756       -10.8507
  61   1.0000      -0.397530       -10.8173
  62   1.0000      -0.383968       -10.4483
  63   1.0000      -0.378577       -10.3016
  64   1.0000      -0.377045       -10.2599
  65   1.0000      -0.364771        -9.9259
  66   1.0000      -0.362094        -9.8531
  67   1.0000      -0.356569        -9.7027
  68   1.0000      -0.353682        -9.6242
  69   1.0000      -0.351227        -9.5574
  70   1.0000      -0.339718        -9.2442
  71   1.0000      -0.332629        -9.0513
  72   1.0000      -0.331930        -9.0323
  73   1.0000      -0.331251        -9.0138
  74   1.0000      -0.326911        -8.8957
  75   1.0000      -0.323030        -8.7901
  76   1.0000      -0.320799        -8.7294
  77   1.0000      -0.300402        -8.1744
  78   1.0000      -0.276955        -7.5363
  79   1.0000      -0.273451        -7.4410
  80   1.0000      -0.268568        -7.3081
  81   1.0000      -0.259098        -7.0504
  82   1.0000      -0.256418        -6.9775
  83   1.0000      -0.217663        -5.9229
  84   1.0000      -0.171359        -4.6629
  85   0.0000      -0.058937        -1.6038
  86   0.0000      -0.014869        -0.4046
  87   0.0000      -0.014079        -0.3831
  88   0.0000       0.010609         0.2887
  89   0.0000       0.015184         0.4132

                 SPIN DOWN ORBITALS
  NO   OCC          E(Eh)            E(eV)
   0   1.0000     -10.227011      -278.2911
   1   1.0000     -10.223475      -278.1949
   2   1.0000     -10.220635      -278.1176
   3   1.0000     -10.210775      -277.8493
   4   1.0000     -10.208241      -277.7803
   5   1.0000     -10.205240      -277.6987
   6   1.0000     -10.204534      -277.6795
   7   1.0000     -10.204259      -277.6720
   8   1.0000     -10.204001      -277.6650
   9   1.0000     -10.203529      -277.6521
  10   1.0000     -10.203252      -277.6446
  11   1.0000     -10.201463      -277.5959
  12   1.0000     -10.199298      -277.5370
  13   1.0000     -10.199271      -277.5363
  14   1.0000     -10.198008      -277.5019
  15   1.0000     -10.197323      -277.4833
  16   1.0000     -10.190786      -277.3054
  17   1.0000     -10.188566      -277.2450
  18   1.0000     -10.187695      -277.2213
  19   1.0000     -10.185546      -277.1628
  20   1.0000     -10.182254      -277.0732
  21   1.0000     -10.181980      -277.0658
  22   1.0000     -10.175386      -276.8863
  23   1.0000     -10.172986      -276.8210
  24   1.0000      -0.870291       -23.6818
  25   1.0000      -0.862302       -23.4644
  26   1.0000      -0.814470       -22.1628
  27   1.0000      -0.796243       -21.6669
  28   1.0000      -0.792948       -21.5772
  29   1.0000      -0.777812       -21.1653
  30   1.0000      -0.764666       -20.8076
  31   1.0000      -0.750460       -20.4210
  32   1.0000      -0.744554       -20.2604
  33   1.0000      -0.725477       -19.7412
  34   1.0000      -0.713720       -19.4213
  35   1.0000      -0.694405       -18.8957
  36   1.0000      -0.652889       -17.7660
  37   1.0000      -0.643157       -17.5012
  38   1.0000      -0.614772       -16.7288
  39   1.0000      -0.609508       -16.5856
  40   1.0000      -0.608786       -16.5659
  41   1.0000      -0.591480       -16.0950
  42   1.0000      -0.578128       -15.7317
  43   1.0000      -0.559607       -15.2277
  44   1.0000      -0.541609       -14.7379
  45   1.0000      -0.529527       -14.4092
  46   1.0000      -0.503666       -13.7055
  47   1.0000      -0.492080       -13.3902
  48   1.0000      -0.479145       -13.0382
  49   1.0000      -0.475273       -12.9328
  50   1.0000      -0.469154       -12.7663
  51   1.0000      -0.459327       -12.4989
  52   1.0000      -0.456327       -12.4173
  53   1.0000      -0.436551       -11.8792
  54   1.0000      -0.430775       -11.7220
  55   1.0000      -0.427557       -11.6344
  56   1.0000      -0.424830       -11.5602
  57   1.0000      -0.424339       -11.5469
  58   1.0000      -0.418867       -11.3979
  59   1.0000      -0.410941       -11.1823
  60   1.0000      -0.396434       -10.7875
  61   1.0000      -0.391282       -10.6473
  62   1.0000      -0.381304       -10.3758
  63   1.0000      -0.376267       -10.2388
  64   1.0000      -0.374438       -10.1890
  65   1.0000      -0.363614        -9.8944
  66   1.0000      -0.361702        -9.8424
  67   1.0000      -0.355689        -9.6788
  68   1.0000      -0.351058        -9.5528
  69   1.0000      -0.350674        -9.5423
  70   1.0000      -0.337394        -9.1810
  71   1.0000      -0.332120        -9.0374
  72   1.0000      -0.330220        -8.9858
  73   1.0000      -0.329094        -8.9551
  74   1.0000      -0.326560        -8.8861
  75   1.0000      -0.322336        -8.7712
  76   1.0000      -0.320237        -8.7141
  77   1.0000      -0.297624        -8.0988
  78   1.0000      -0.276906        -7.5350
  79   1.0000      -0.268147        -7.2966
  80   1.0000      -0.260201        -7.0804
  81   1.0000      -0.258099        -7.0232
  82   1.0000      -0.251420        -6.8415
  83   1.0000      -0.211393        -5.7523
  84   0.0000      -0.086980        -2.3669
  85   0.0000      -0.051060        -1.3894
  86   0.0000      -0.013255        -0.3607
  87   0.0000      -0.009792        -0.2665
  88   0.0000       0.015426         0.4198

MULLIKEN ATOMIC CHARGES AND SPIN POPULATIONS
--------------------------------------------
   0 C :   -0.310960    0.093128
   1 C :   -0.391629   -0.061308
   2 C :    0.000569    0.025462
   3 C :    0.496037    0.202159
   4 C :    0.381065   -0.136693
   5 C :   -0.442140    0.209248
   6 C :    0.416946   -0.094145
   7 C :    0.301219    0.219182
   8 C :   -0.403553   -0.109070
   9 H :    0.130379   -0.011367
  10 H :    0.130959    0.005107
  11 C :   -0.261832    0.687575
  12 H :    0.125687   -0.036140
  13 C :   -0.267840   -0.045284
  14 H :    0.150486    0.030636
  15 H :    0.150346    0.030526
  16 C :   -0.282541    0.002130
  17 H :    0.152451   -0.000170
  18 H :    0.152388   -0.000168
  19 C :   -0.507509   -0.000751
  20 H :    0.157653    0.000175
  21 H :    0.157647    0.000175
  22 C :   -0.385105   -0.016405
  23 H :    0.153035    0.010614
  24 H :    0.153034    0.010620
  25 C :   -0.265332    0.000900
  26 H :    0.139452    0.000183
  27 H :    0.139469    0.000183
  28 C :   -0.254655   -0.000228
  29 H :    0.142365    0.000042
  30 H :    0.142369    0.000042
  31 C :   -0.508667   -0.000085
  32 H :    0.157664    0.000025
  33 H :    0.157658    0.000025
  34 C :   -0.546907   -0.048031
  35 H :    0.182848    0.001936
  36 H :    0.144699   -0.000166
  37 H :    0.143203   -0.000005
  38 C :   -0.123083    0.027940
  39 C :   -0.098571   -0.012769
  40 C :   -0.283539    0.024387
  41 C :    0.601707   -0.018614
  42 C :   -0.277395    0.024704
  43 C :   -0.099605   -0.012776
  44 H :    0.105701   -0.001576
  45 H :    0.118400   -0.001320
  46 H :    0.104732    0.000620
  47 H :    0.105002    0.000618
  48 H :    0.115691   -0.001271
Sum of atomic charges         :   -0.0000000

LOEWDIN ATOMIC CHARGES AND SPIN POPULATIONS
-------------------------------------------
   0 C :   -0.035335    0.071026
   1 C :   -0.029778   -0.028462
   2 C :   -0.030499    0.012931
   3 C :   -0.053657    0.159394
   4 C :   -0.067959   -0.070932
   5 C :    0.009219    0.165776
   6 C :   -0.073304   -0.060146
   7 C :   -0.041631    0.172652
   8 C :   -0.010853   -0.064503
   9 H :    0.062560    0.001057
  10 H :    0.063258   -0.000508
  11 C :   -0.010820    0.567625
  12 H :    0.059976    0.003954
  13 C :   -0.087352    0.003477
  14 H :    0.056924    0.024973
  15 H :    0.056873    0.024876
  16 C :   -0.094064    0.000971
  17 H :    0.044803   -0.000064
  18 H :    0.044786   -0.000064
  19 C :   -0.084050   -0.000126
  20 H :    0.036797    0.000213
  21 H :    0.036797    0.000213
  22 C :   -0.048460    0.001654
  23 H :    0.062504    0.008438
  24 H :    0.062504    0.008439
  25 C :   -0.084594    0.000184
  26 H :    0.046938    0.000008
  27 H :    0.046943    0.000008
  28 C :   -0.095816    0.000008
  29 H :    0.043679    0.000060
  30 H :    0.043678    0.000060
  31 C :   -0.085088   -0.000032
  32 H :    0.036346    0.000016
  33 H :    0.036345    0.000016
  34 C :   -0.062513   -0.038711
  35 H :    0.048819   -0.000201
  36 H :    0.034583   -0.000082
  37 H :    0.033876   -0.000006
  38 C :   -0.045525    0.021802
  39 C :   -0.045565   -0.007783
  40 C :   -0.018244    0.019699
  41 C :   -0.073573   -0.010162
  42 C :   -0.017122    0.019870
  43 C :   -0.045287   -0.007760
  44 H :    0.051528    0.000138
  45 H :    0.058366    0.000055
  46 H :    0.052725   -0.000053
  47 H :    0.052801   -0.000052
  48 H :    0.057462    0.000054

  Mayer bond orders larger than 0.100000
B(  0-C ,  1-C ) :   2.4712 B(  0-C ,  3-C ) :   0.1030 B(  0-C , 41-C ) :   1.0215
B(  1-C ,  3-C ) :   0.8156 B(  1-C ,  4-C ) :   0.1044 B(  2-C ,  6-C ) :   0.9055
B(  2-C , 34-C ) :   2.7078 B(  3-C ,  4-C ) :   1.2590 B(  3-C ,  7-C ) :   0.1040
B(  3-C ,  8-C ) :   1.4496 B(  4-C ,  5-C ) :   1.2394 B(  4-C ,  6-C ) :   0.1082
B(  4-C , 11-C ) :   1.3015 B(  5-C ,  6-C ) :   1.4800 B(  5-C ,  9-H ) :   0.9762
B(  5-C , 34-C ) :   0.1027 B(  6-C ,  7-C ) :   1.3141 B(  6-C ,  8-C ) :   0.1038
B(  7-C ,  8-C ) :   1.4230 B(  7-C , 22-C ) :   0.9426 B(  8-C , 10-H ) :   0.9727
B( 11-C , 12-H ) :   0.9813 B( 11-C , 13-C ) :   1.0012 B( 13-C , 14-H ) :   0.9551
B( 13-C , 15-H ) :   0.9550 B( 13-C , 16-C ) :   0.9825 B( 16-C , 17-H ) :   0.9721
B( 16-C , 18-H ) :   0.9720 B( 16-C , 19-C ) :   0.9615 B( 19-C , 20-H ) :   0.9727
B( 19-C , 21-H ) :   0.9727 B( 19-C , 36-H ) :   0.9672 B( 22-C , 23-H ) :   0.9595
B( 22-C , 24-H ) :   0.9595 B( 22-C , 25-C ) :   1.0209 B( 25-C , 26-H ) :   0.9606
B( 25-C , 27-H ) :   0.9606 B( 25-C , 28-C ) :   0.9875 B( 28-C , 29-H ) :   0.9710
B( 28-C , 30-H ) :   0.9710 B( 28-C , 31-C ) :   0.9538 B( 31-C , 32-H ) :   0.9730
B( 31-C , 33-H ) :   0.9730 B( 31-C , 37-H ) :   0.9675 B( 34-C , 35-H ) :   0.9843
B( 38-C , 39-C ) :   1.4532 B( 38-C , 40-C ) :   0.1035 B( 38-C , 42-C ) :   0.1005
B( 38-C , 43-C ) :   1.4515 B( 38-C , 44-H ) :   0.9658 B( 39-C , 40-C ) :   1.4781
B( 39-C , 46-H ) :   0.9770 B( 40-C , 41-C ) :   1.3839 B( 40-C , 48-H ) :   0.9816
B( 41-C , 42-C ) :   1.3801 B( 42-C , 43-C ) :   1.4779 B( 42-C , 45-H ) :   0.9828
B( 43-C , 47-H ) :   0.9763

FINAL SINGLE POINT ENERGY      -928.972110374037

DIPOLE MOMENT
-------------
                                X             Y             Z
Electronic contribution:     10.59122       2.02016       0.00519
Nuclear contribution   :    -10.39741      -1.99660      -0.00444
                        -----------------------------------------
Total Dipole Moment    :      0.19381       0.02356       0.00075
                        -----------------------------------------
Magnitude (a.u.)       :      0.19524
Magnitude (Debye)      :      0.49627

Rotational constants in cm-1:     0.006531     0.004289     0.002597
Rotational constants in MHz :   195.785594   128.568523    77.869221

CHEMICAL SHIELDING SUMMARY (ppm)  --  Orbital contribution
----------------------------------------------------------

  Nucleus  Element    Isotropic     Anisotropy
  -------  -------  ------------   ------------
      9       H           24.372         11.752
     10       H           24.531         13.069
     12       H           25.261         11.964
     14       H           29.162          4.531
     15       H           29.161          4.531
     17       H           29.854          6.674
     18       H           29.853          6.680
     20       H           30.722          8.093
     21       H           30.722          8.092
     23       H           28.897          5.769
     24       H           28.897          5.769
     26       H           30.035          4.817
     27       H           30.035          4.817
     29       H           30.145          6.508
     30       H           30.145          6.509
     32       H           30.703          7.927
     33       H           30.703          7.927
     35       H           28.509         10.860
     36       H           30.449         10.122
     37       H           30.479         10.350
     44       H           24.327          4.573
     45       H           24.056          7.855
     46       H           24.300          5.424
     47       H           24.292          5.264
     48       H           24.056          7.826

                             ****ORCA TERMINATED NORMALLY****
TOTAL RUN TIME: 0 days 1 hours 32 minutes 3 seconds 742 msec
