                         Program Version 5.0.4 -  RELEASE  -
|  1> ! B3LYP EPR-II OPT
|  2> %pal nprocs 16 end
|  3> *XYZFile 0 2 model.xyz
|  4>
|  5>                          ****END OF INPUT****
 Total Charge           Charge          ....    0
 Multiplicity           Mult            ....    2
 Number of Electrons    NEL             ....  169
FINAL SINGLE POINT ENERGY      -928.972814931424
FINAL SINGLE POINT ENERGY      -928.973911675217
FINAL SINGLE POINT ENERGY      -928.973962501831
FINAL SINGLE POINT ENERGY      -928.973977002910
FINAL SINGLE POINT ENERGY      -928.973979790142
                    ***********************HURRAY********************

CARTESIAN COORDINATES (ANGSTROEM)
---------------------------------
  C      4.056806   -0.075107    0.000987
  C      2.831075   -0.015247   -0.001957
  C     -2.856691    0.022164   -0.006721
  C      1.407980    0.029084   -0.002965
  C      0.697313    1.290948   -0.002944
  C     -0.728576    1.222563   -0.004345
  C     -1.420228    0.007051   -0.005439
  C     -0.710323   -1.238279   -0.005176
  C      0.687725   -1.185075   -0.004073
  H     -1.303318    2.142043   -0.004518
  H      1.259191   -2.106067   -0.003982
  C      1.381871    2.529466   -0.001368
  H      2.468255    2.499461   -0.000331
  C      0.717227    3.880714   -0.001279
  H      0.060018    3.977204   -0.880187
  H      0.051519    3.973005    0.871605
  C      1.718912    5.050707    0.006459
  H      2.365529    4.963269    0.888934
  H      2.374398    4.967475   -0.869874
  C      1.030429    6.425729    0.006250
  H      0.390878    6.546562    0.887945
  H      0.399677    6.550691   -0.881193
  C     -1.485074   -2.545236   -0.006098
  H     -2.155575   -2.548390    0.864305
  H     -2.153450   -2.548476   -0.878141
  C     -0.652575   -3.836931   -0.004992
  H      0.004232   -3.859373   -0.884856
  H      0.002221   -3.859116    0.876378
  C     -1.531601   -5.100749   -0.005804
  H     -2.190977   -5.083335    0.872096
  H     -2.188855   -5.083689   -0.885299
  C     -0.710777   -6.402135   -0.004548
  H     -0.067506   -6.460952    0.880721
  H     -0.065250   -6.461228   -0.888154
  C     -4.077022    0.029148   -0.008538
  H     -5.142881    0.040087   -0.010481
  H      1.764520    7.237891    0.011791
  H     -1.360545   -7.283423   -0.005233
  C      8.306013   -0.328427    0.010363
  C      7.674297    0.927139    0.009003
  C      6.277793    1.016520    0.005896
  C      5.485015   -0.157854    0.004124
  C      6.130668   -1.419396    0.005474
  C      7.527661   -1.498777    0.008580
  H      9.390693   -0.394124    0.012778
  H      5.527121   -2.322182    0.004079
  H      8.270944    1.835618    0.010356
  H      8.010834   -2.472385    0.009608
  H      5.788588    1.986033    0.004828

 Multiplicity           Mult            ....    2
 Number of Electrons    NEL             ....  169
 Basis Dimension        Dim             ....  583

ORBITAL ENERGIES
----------------
                 SPIN UP ORBITALS
  NO   OCC          E(Eh)            E(eV)
   0   1.0000     -10.227886      -278.3149
   1   1.0000     -10.224941      -278.2348
   2   1.0000     -10.222845      -278.1778
   3   1.0000     -10.212510      -277.8965
   4   1.0000     -10.209257      -277.8080
   5   1.0000     -10.206531      -277.7338
   6   1.0000     -10.205310      -277.7006
   7   1.0000     -10.205023      -277.6928
   8   1.0000     -10.204849      -277.6881
   9   1.0000     -10.203940      -277.6633
  10   1.0000     -10.203758      -277.6584
  11   1.0000     -10.202792      -277.6321
  12   1.0000     -10.202655      -277.6284
  13   1.0000     -10.200037      -277.5571
  14   1.0000     -10.198309      -277.5101
  15   1.0000     -10.196801      -277.4691
  16   1.0000     -10.196764      -277.4681
  17   1.0000     -10.188955      -277.2556
  18   1.0000     -10.186552      -277.1902
  19   1.0000     -10.184238      -277.1272
  20   1.0000     -10.180988      -277.0388
  21   1.0000     -10.180625      -277.0289
  22   1.0000     -10.173180      -276.8263
  23   1.0000     -10.170751      -276.7602
  24   1.0000      -0.872032       -23.7292
  25   1.0000      -0.860450       -23.4140
  26   1.0000      -0.817970       -22.2581
  27   1.0000      -0.797742       -21.7077
  28   1.0000      -0.793275       -21.5861
  29   1.0000      -0.777342       -21.1526
  30   1.0000      -0.765795       -20.8383
  31   1.0000      -0.750113       -20.4116
  32   1.0000      -0.744530       -20.2597
  33   1.0000      -0.728971       -19.8363
  34   1.0000      -0.713798       -19.4234
  35   1.0000      -0.696551       -18.9541
  36   1.0000      -0.656246       -17.8574
  37   1.0000      -0.643883       -17.5210
  38   1.0000      -0.618414       -16.8279
  39   1.0000      -0.613110       -16.6836
  40   1.0000      -0.609352       -16.5813
  41   1.0000      -0.593388       -16.1469
  42   1.0000      -0.581410       -15.8210
  43   1.0000      -0.563289       -15.3279
  44   1.0000      -0.542183       -14.7535
  45   1.0000      -0.531339       -14.4585
  46   1.0000      -0.506761       -13.7897
  47   1.0000      -0.493208       -13.4209
  48   1.0000      -0.481005       -13.0888
  49   1.0000      -0.476301       -12.9608
  50   1.0000      -0.470883       -12.8134
  51   1.0000      -0.463757       -12.6195
  52   1.0000      -0.455071       -12.3831
  53   1.0000      -0.437640       -11.9088
  54   1.0000      -0.432464       -11.7679
  55   1.0000      -0.428712       -11.6658
  56   1.0000      -0.425592       -11.5809
  57   1.0000      -0.425253       -11.5717
  58   1.0000      -0.422413       -11.4944
  59   1.0000      -0.411692       -11.2027
  60   1.0000      -0.399561       -10.8726
  61   1.0000      -0.396925       -10.8009
  62   1.0000      -0.383672       -10.4402
  63   1.0000      -0.378692       -10.3047
  64   1.0000      -0.376461       -10.2440
  65   1.0000      -0.364829        -9.9275
  66   1.0000      -0.362653        -9.8683
  67   1.0000      -0.356418        -9.6986
  68   1.0000      -0.355193        -9.6653
  69   1.0000      -0.352157        -9.5827
  70   1.0000      -0.338478        -9.2105
  71   1.0000      -0.333621        -9.0783
  72   1.0000      -0.332549        -9.0491
  73   1.0000      -0.331949        -9.0328
  74   1.0000      -0.326913        -8.8958
  75   1.0000      -0.322759        -8.7827
  76   1.0000      -0.321945        -8.7606
  77   1.0000      -0.299642        -8.1537
  78   1.0000      -0.276271        -7.5177
  79   1.0000      -0.273467        -7.4414
  80   1.0000      -0.268196        -7.2980
  81   1.0000      -0.258496        -7.0340
  82   1.0000      -0.255884        -6.9630
  83   1.0000      -0.217452        -5.9172
  84   1.0000      -0.171721        -4.6728
  85   0.0000      -0.059465        -1.6181
  86   0.0000      -0.015809        -0.4302
  87   0.0000      -0.015243        -0.4148
  88   0.0000       0.009651         0.2626
  89   0.0000       0.015660         0.4261

                 SPIN DOWN ORBITALS
  NO   OCC          E(Eh)            E(eV)
   0   1.0000     -10.228242      -278.3246
   1   1.0000     -10.224494      -278.2226
   2   1.0000     -10.221568      -278.1430
   3   1.0000     -10.211720      -277.8750
   4   1.0000     -10.209095      -277.8036
   5   1.0000     -10.206090      -277.7218
   6   1.0000     -10.204974      -277.6915
   7   1.0000     -10.204728      -277.6848
   8   1.0000     -10.204506      -277.6787
   9   1.0000     -10.204065      -277.6667
  10   1.0000     -10.203808      -277.6597
  11   1.0000     -10.202258      -277.6175
  12   1.0000     -10.200147      -277.5601
  13   1.0000     -10.199565      -277.5443
  14   1.0000     -10.198364      -277.5116
  15   1.0000     -10.197475      -277.4874
  16   1.0000     -10.189603      -277.2732
  17   1.0000     -10.188516      -277.2436
  18   1.0000     -10.186745      -277.1954
  19   1.0000     -10.184202      -277.1262
  20   1.0000     -10.180986      -277.0387
  21   1.0000     -10.180626      -277.0289
  22   1.0000     -10.173189      -276.8265
  23   1.0000     -10.170753      -276.7603
  24   1.0000      -0.868743       -23.6397
  25   1.0000      -0.859991       -23.4015
  26   1.0000      -0.813174       -22.1276
  27   1.0000      -0.795157       -21.6373
  28   1.0000      -0.791864       -21.5477
  29   1.0000      -0.776523       -21.1303
  30   1.0000      -0.763834       -20.7850
  31   1.0000      -0.749758       -20.4019
  32   1.0000      -0.743553       -20.2331
  33   1.0000      -0.724955       -19.7270
  34   1.0000      -0.713077       -19.4038
  35   1.0000      -0.694411       -18.8959
  36   1.0000      -0.653147       -17.7730
  37   1.0000      -0.642666       -17.4878
  38   1.0000      -0.614904       -16.7324
  39   1.0000      -0.610157       -16.6032
  40   1.0000      -0.609116       -16.5749
  41   1.0000      -0.592501       -16.1228
  42   1.0000      -0.579765       -15.7762
  43   1.0000      -0.560860       -15.2618
  44   1.0000      -0.541608       -14.7379
  45   1.0000      -0.530155       -14.4263
  46   1.0000      -0.503593       -13.7034
  47   1.0000      -0.492296       -13.3961
  48   1.0000      -0.480073       -13.0634
  49   1.0000      -0.474945       -12.9239
  50   1.0000      -0.470044       -12.7906
  51   1.0000      -0.460458       -12.5297
  52   1.0000      -0.454861       -12.3774
  53   1.0000      -0.437162       -11.8958
  54   1.0000      -0.431374       -11.7383
  55   1.0000      -0.426458       -11.6045
  56   1.0000      -0.425380       -11.5752
  57   1.0000      -0.424152       -11.5418
  58   1.0000      -0.419963       -11.4278
  59   1.0000      -0.411308       -11.1923
  60   1.0000      -0.395792       -10.7700
  61   1.0000      -0.392250       -10.6737
  62   1.0000      -0.380684       -10.3589
  63   1.0000      -0.376372       -10.2416
  64   1.0000      -0.374192       -10.1823
  65   1.0000      -0.363681        -9.8963
  66   1.0000      -0.362271        -9.8579
  67   1.0000      -0.355566        -9.6754
  68   1.0000      -0.352251        -9.5852
  69   1.0000      -0.351988        -9.5781
  70   1.0000      -0.336118        -9.1462
  71   1.0000      -0.332057        -9.0357
  72   1.0000      -0.331822        -9.0293
  73   1.0000      -0.330041        -8.9809
  74   1.0000      -0.326544        -8.8857
  75   1.0000      -0.322039        -8.7631
  76   1.0000      -0.321300        -8.7430
  77   1.0000      -0.296787        -8.0760
  78   1.0000      -0.276232        -7.5167
  79   1.0000      -0.267780        -7.2867
  80   1.0000      -0.260027        -7.0757
  81   1.0000      -0.257493        -7.0068
  82   1.0000      -0.250989        -6.8298
  83   1.0000      -0.211185        -5.7466
  84   0.0000      -0.086988        -2.3671
  85   0.0000      -0.051600        -1.4041
  86   0.0000      -0.014415        -0.3923
  87   0.0000      -0.010716        -0.2916
  88   0.0000       0.015895         0.4325

MULLIKEN ATOMIC CHARGES AND SPIN POPULATIONS
--------------------------------------------
   0 C :   -0.310645    0.094048
   1 C :   -0.389009   -0.062253
   2 C :   -0.004939    0.027118
   3 C :    0.490855    0.203269
   4 C :    0.377508   -0.139229
   5 C :   -0.437698    0.211194
   6 C :    0.415158   -0.096007
   7 C :    0.292242    0.220866
   8 C :   -0.396901   -0.110897
   9 H :    0.131751   -0.011396
  10 H :    0.132065    0.005177
  11 C :   -0.264365    0.692439
  12 H :    0.126410   -0.036128
  13 C :   -0.271109   -0.044652
  14 H :    0.152737    0.029231
  15 H :    0.152443    0.029024
  16 C :   -0.288804    0.002069
  17 H :    0.154782   -0.000148
  18 H :    0.154615   -0.000145
  19 C :   -0.509597   -0.000771
  20 H :    0.159487    0.000164
  21 H :    0.159472    0.000164
  22 C :   -0.386993   -0.016265
  23 H :    0.155141    0.010159
  24 H :    0.155166    0.010172
  25 C :   -0.269678    0.000892
  26 H :    0.141892    0.000175
  27 H :    0.141941    0.000176
  28 C :   -0.262490   -0.000236
  29 H :    0.144916    0.000041
  30 H :    0.144920    0.000041
  31 C :   -0.510478   -0.000084
  32 H :    0.159445    0.000022
  33 H :    0.159438    0.000022
  34 C :   -0.541989   -0.050023
  35 H :    0.183821    0.002040
  36 H :    0.145943   -0.000164
  37 H :    0.144395   -0.000005
  38 C :   -0.124336    0.028638
  39 C :   -0.099701   -0.013396
  40 C :   -0.280791    0.025032
  41 C :    0.595141   -0.019380
  42 C :   -0.276113    0.025365
  43 C :   -0.100122   -0.013399
  44 H :    0.106811   -0.001618
  45 H :    0.119331   -0.001355
  46 H :    0.105536    0.000659
  47 H :    0.105816    0.000656
  48 H :    0.116581   -0.001306
Sum of atomic charges         :   -0.0000000

LOEWDIN ATOMIC CHARGES AND SPIN POPULATIONS
-------------------------------------------
   0 C :   -0.035832    0.071936
   1 C :   -0.030054   -0.029549
   2 C :   -0.029139    0.014088
   3 C :   -0.053053    0.160299
   4 C :   -0.066393   -0.072886
   5 C :    0.010420    0.167259
   6 C :   -0.072562   -0.061444
   7 C :   -0.040009    0.173846
   8 C :   -0.009386   -0.065987
   9 H :    0.060187    0.001202
  10 H :    0.060804   -0.000586
  11 C :   -0.007971    0.571622
  12 H :    0.056989    0.004555
  13 C :   -0.082393    0.003446
  14 H :    0.054323    0.023940
  15 H :    0.054222    0.023754
  16 C :   -0.087910    0.000937
  17 H :    0.042093   -0.000046
  18 H :    0.042055   -0.000046
  19 C :   -0.077809   -0.000162
  20 H :    0.034392    0.000198
  21 H :    0.034392    0.000199
  22 C :   -0.044181    0.001624
  23 H :    0.059919    0.008103
  24 H :    0.059919    0.008111
  25 C :   -0.079666    0.000184
  26 H :    0.044477    0.000007
  27 H :    0.044492    0.000007
  28 C :   -0.089851   -0.000007
  29 H :    0.041062    0.000057
  30 H :    0.041062    0.000057
  31 C :   -0.078849   -0.000034
  32 H :    0.033949    0.000014
  33 H :    0.033948    0.000014
  34 C :   -0.060910   -0.040249
  35 H :    0.045213   -0.000235
  36 H :    0.032297   -0.000083
  37 H :    0.031588   -0.000006
  38 C :   -0.043075    0.022309
  39 C :   -0.042964   -0.008243
  40 C :   -0.016523    0.020172
  41 C :   -0.071767   -0.010697
  42 C :   -0.015388    0.020353
  43 C :   -0.042688   -0.008219
  44 H :    0.049001    0.000157
  45 H :    0.055994    0.000071
  46 H :    0.050212   -0.000060
  47 H :    0.050296   -0.000059
  48 H :    0.055068    0.000070

  Mayer bond orders larger than 0.100000
B(  0-C ,  1-C ) :   2.4739 B(  0-C , 41-C ) :   1.0185 B(  1-C ,  3-C ) :   0.8177
B(  1-C ,  4-C ) :   0.1008 B(  2-C ,  6-C ) :   0.9017 B(  2-C , 34-C ) :   2.7136
B(  3-C ,  4-C ) :   1.2562 B(  3-C ,  8-C ) :   1.4480 B(  4-C ,  5-C ) :   1.2427
B(  4-C ,  6-C ) :   0.1037 B(  4-C , 11-C ) :   1.2983 B(  5-C ,  6-C ) :   1.4785
B(  5-C ,  9-H ) :   0.9754 B(  5-C , 34-C ) :   0.1014 B(  6-C ,  7-C ) :   1.3122
B(  6-C ,  8-C ) :   0.1017 B(  7-C ,  8-C ) :   1.4231 B(  7-C , 22-C ) :   0.9419
B(  8-C , 10-H ) :   0.9714 B( 11-C , 12-H ) :   0.9807 B( 11-C , 13-C ) :   0.9991
B( 13-C , 14-H ) :   0.9563 B( 13-C , 15-H ) :   0.9562 B( 13-C , 16-C ) :   0.9821
B( 16-C , 17-H ) :   0.9724 B( 16-C , 18-H ) :   0.9723 B( 16-C , 19-C ) :   0.9619
B( 19-C , 20-H ) :   0.9728 B( 19-C , 21-H ) :   0.9728 B( 19-C , 36-H ) :   0.9675
B( 22-C , 23-H ) :   0.9599 B( 22-C , 24-H ) :   0.9600 B( 22-C , 25-C ) :   1.0195
B( 25-C , 26-H ) :   0.9614 B( 25-C , 27-H ) :   0.9615 B( 25-C , 28-C ) :   0.9858
B( 28-C , 29-H ) :   0.9717 B( 28-C , 30-H ) :   0.9717 B( 28-C , 31-C ) :   0.9543
B( 31-C , 32-H ) :   0.9731 B( 31-C , 33-H ) :   0.9731 B( 31-C , 37-H ) :   0.9677
B( 34-C , 35-H ) :   0.9834 B( 38-C , 39-C ) :   1.4533 B( 38-C , 40-C ) :   0.1012
B( 38-C , 43-C ) :   1.4515 B( 38-C , 44-H ) :   0.9656 B( 39-C , 40-C ) :   1.4785
B( 39-C , 46-H ) :   0.9767 B( 40-C , 41-C ) :   1.3828 B( 40-C , 48-H ) :   0.9809
B( 41-C , 42-C ) :   1.3804 B( 42-C , 43-C ) :   1.4782 B( 42-C , 45-H ) :   0.9821
B( 43-C , 47-H ) :   0.9760

FINAL SINGLE POINT ENERGY      -928.973980872595

DIPOLE MOMENT
-------------
                                X             Y             Z
Electronic contribution:     10.55746       2.03777      -0.00999
Nuclear contribution   :    -10.35096      -2.01389       0.01093
                        -----------------------------------------
Total Dipole Moment    :      0.20651       0.02388       0.00093
                        -----------------------------------------
Magnitude (a.u.)       :      0.20789
Magnitude (Debye)      :      0.52840

Rotational constants in cm-1:     0.006530     0.004261     0.002587
Rotational constants in MHz :   195.769552   127.726625    77.554936

                             ****ORCA TERMINATED NORMALLY****
TOTAL RUN TIME: 0 days 0 hours 14 minutes 20 seconds 48 msec
