                         Program Version 5.0.4 -  RELEASE  -
|  1> ! B3LYP cc-pVDZ OPT
|  2> %pal nprocs 16 end
|  3> *XYZFile 0 2 model.xyz
|  4>
|  5>                          ****END OF INPUT****
 Total Charge           Charge          ....    0
 Multiplicity           Mult            ....    2
 Number of Electrons    NEL             ....  169
FINAL SINGLE POINT ENERGY      -928.902320804590
FINAL SINGLE POINT ENERGY      -928.902323082745
FINAL SINGLE POINT ENERGY      -928.902322372553
FINAL SINGLE POINT ENERGY      -928.902321072708
                    ***********************HURRAY********************

CARTESIAN COORDINATES (ANGSTROEM)
---------------------------------
  C      4.055651   -0.073547    0.001259
  C      2.833542   -0.006600   -0.001853
  C     -2.844938    0.019403   -0.004605
  C      1.413420    0.037578   -0.002650
  C      0.700732    1.295437   -0.002274
  C     -0.721501    1.219563   -0.002939
  C     -1.411453    0.007143   -0.003953
  C     -0.698523   -1.233355   -0.004352
  C      0.695582   -1.174421   -0.003778
  H     -1.303965    2.141141   -0.002676
  H      1.274536   -2.097754   -0.004091
  C      1.376735    2.533606   -0.001170
  H      2.469590    2.505778   -0.000846
  C      0.711209    3.877604   -0.000569
  H      0.041247    3.969721   -0.880342
  H      0.037271    3.967005    0.876408
  C      1.701375    5.049653    0.003518
  H      2.358700    4.962416    0.887902
  H      2.362825    4.965169   -0.878056
  C      1.013980    6.416414    0.004035
  H      0.370653    6.541162    0.892218
  H      0.374821    6.543928   -0.886762
  C     -1.466096   -2.538946   -0.005338
  H     -2.145195   -2.541193    0.867755
  H     -2.144376   -2.540390   -0.879069
  C     -0.640631   -3.828188   -0.005524
  H      0.023196   -3.849353   -0.889420
  H      0.022302   -3.850153    0.879024
  C     -1.515380   -5.087922   -0.006538
  H     -2.182257   -5.068236    0.875347
  H     -2.181205   -5.067554   -0.889201
  C     -0.702663   -6.385165   -0.006558
  H     -0.052972   -6.450617    0.883324
  H     -0.051766   -6.449835   -0.895614
  C     -4.060832    0.033276   -0.006062
  H     -5.133143    0.050044   -0.008099
  H      1.748932    7.237402    0.007037
  H     -1.357003   -7.272006   -0.007390
  C      8.290611   -0.349909    0.011621
  C      7.669126    0.904242    0.011288
  C      6.278191    1.001489    0.007860
  C      5.479290   -0.163666    0.004675
  C      6.117697   -1.424276    0.005036
  C      7.509166   -1.511211    0.008484
  H      9.380725   -0.422104    0.014310
  H      5.506205   -2.328550    0.002590
  H      8.273734    1.814420    0.013750
  H      7.988600   -2.493123    0.008723
  H      5.792435    1.979098    0.007626

 Multiplicity           Mult            ....    2
 Number of Electrons    NEL             ....  169
 Basis Dimension        Dim             ....  461

ORBITAL ENERGIES
----------------
                 SPIN UP ORBITALS
  NO   OCC          E(Eh)            E(eV)
   0   1.0000     -10.215390      -277.9749
   1   1.0000     -10.214407      -277.9481
   2   1.0000     -10.211673      -277.8737
   3   1.0000     -10.202682      -277.6291
   4   1.0000     -10.198402      -277.5126
   5   1.0000     -10.196448      -277.4594
   6   1.0000     -10.196197      -277.4526
   7   1.0000     -10.195191      -277.4252
   8   1.0000     -10.195112      -277.4231
   9   1.0000     -10.194439      -277.4048
  10   1.0000     -10.194262      -277.4000
  11   1.0000     -10.192572      -277.3540
  12   1.0000     -10.191566      -277.3266
  13   1.0000     -10.189727      -277.2766
  14   1.0000     -10.189187      -277.2619
  15   1.0000     -10.188440      -277.2415
  16   1.0000     -10.186734      -277.1951
  17   1.0000     -10.186464      -277.1878
  18   1.0000     -10.186005      -277.1753
  19   1.0000     -10.184397      -277.1315
  20   1.0000     -10.181561      -277.0544
  21   1.0000     -10.181370      -277.0492
  22   1.0000     -10.177374      -276.9404
  23   1.0000     -10.175448      -276.8880
  24   1.0000      -0.873917       -23.7805
  25   1.0000      -0.862490       -23.4695
  26   1.0000      -0.820091       -22.3158
  27   1.0000      -0.799064       -21.7436
  28   1.0000      -0.795887       -21.6572
  29   1.0000      -0.778096       -21.1731
  30   1.0000      -0.767735       -20.8911
  31   1.0000      -0.750232       -20.4149
  32   1.0000      -0.744633       -20.2625
  33   1.0000      -0.730344       -19.8737
  34   1.0000      -0.713547       -19.4166
  35   1.0000      -0.697698       -18.9853
  36   1.0000      -0.656859       -17.8741
  37   1.0000      -0.643823       -17.5193
  38   1.0000      -0.618027       -16.8174
  39   1.0000      -0.612663       -16.6714
  40   1.0000      -0.608133       -16.5481
  41   1.0000      -0.592660       -16.1271
  42   1.0000      -0.580367       -15.7926
  43   1.0000      -0.562105       -15.2956
  44   1.0000      -0.540752       -14.7146
  45   1.0000      -0.529287       -14.4026
  46   1.0000      -0.506727       -13.7887
  47   1.0000      -0.491822       -13.3832
  48   1.0000      -0.479897       -13.0587
  49   1.0000      -0.476005       -12.9527
  50   1.0000      -0.470378       -12.7996
  51   1.0000      -0.462602       -12.5880
  52   1.0000      -0.456832       -12.4310
  53   1.0000      -0.435920       -11.8620
  54   1.0000      -0.432318       -11.7640
  55   1.0000      -0.429404       -11.6847
  56   1.0000      -0.426175       -11.5968
  57   1.0000      -0.423393       -11.5211
  58   1.0000      -0.421623       -11.4729
  59   1.0000      -0.411821       -11.2062
  60   1.0000      -0.398689       -10.8489
  61   1.0000      -0.397976       -10.8295
  62   1.0000      -0.383899       -10.4464
  63   1.0000      -0.378656       -10.3037
  64   1.0000      -0.377062       -10.2604
  65   1.0000      -0.365290        -9.9400
  66   1.0000      -0.361001        -9.8233
  67   1.0000      -0.356481        -9.7003
  68   1.0000      -0.353706        -9.6248
  69   1.0000      -0.349687        -9.5155
  70   1.0000      -0.340421        -9.2633
  71   1.0000      -0.332965        -9.0604
  72   1.0000      -0.331482        -9.0201
  73   1.0000      -0.331272        -9.0144
  74   1.0000      -0.327531        -8.9126
  75   1.0000      -0.324165        -8.8210
  76   1.0000      -0.321299        -8.7430
  77   1.0000      -0.299686        -8.1549
  78   1.0000      -0.275115        -7.4863
  79   1.0000      -0.273314        -7.4373
  80   1.0000      -0.267436        -7.2773
  81   1.0000      -0.258404        -7.0315
  82   1.0000      -0.255342        -6.9482
  83   1.0000      -0.216706        -5.8969
  84   1.0000      -0.170840        -4.6488
  85   0.0000      -0.056622        -1.5408
  86   0.0000      -0.011577        -0.3150
  87   0.0000      -0.009824        -0.2673
  88   0.0000       0.013106         0.3566
  89   0.0000       0.041632         1.1329

                 SPIN DOWN ORBITALS
  NO   OCC          E(Eh)            E(eV)
   0   1.0000     -10.215746      -277.9846
   1   1.0000     -10.213312      -277.9183
   2   1.0000     -10.211038      -277.8565
   3   1.0000     -10.200861      -277.5796
   4   1.0000     -10.199272      -277.5363
   5   1.0000     -10.196066      -277.4491
   6   1.0000     -10.195819      -277.4423
   7   1.0000     -10.194906      -277.4175
   8   1.0000     -10.194605      -277.4093
   9   1.0000     -10.194254      -277.3997
  10   1.0000     -10.192107      -277.3413
  11   1.0000     -10.191322      -277.3200
  12   1.0000     -10.191165      -277.3157
  13   1.0000     -10.189111      -277.2598
  14   1.0000     -10.188820      -277.2519
  15   1.0000     -10.186666      -277.1933
  16   1.0000     -10.186654      -277.1929
  17   1.0000     -10.186643      -277.1926
  18   1.0000     -10.184358      -277.1305
  19   1.0000     -10.182730      -277.0862
  20   1.0000     -10.181559      -277.0543
  21   1.0000     -10.181369      -277.0491
  22   1.0000     -10.177382      -276.9406
  23   1.0000     -10.175450      -276.8881
  24   1.0000      -0.870608       -23.6904
  25   1.0000      -0.862026       -23.4569
  26   1.0000      -0.815206       -22.1829
  27   1.0000      -0.796365       -21.6702
  28   1.0000      -0.794687       -21.6245
  29   1.0000      -0.777245       -21.1499
  30   1.0000      -0.765723       -20.8364
  31   1.0000      -0.749874       -20.4051
  32   1.0000      -0.743518       -20.2322
  33   1.0000      -0.726477       -19.7684
  34   1.0000      -0.712764       -19.3953
  35   1.0000      -0.695510       -18.9258
  36   1.0000      -0.653837       -17.7918
  37   1.0000      -0.642600       -17.4860
  38   1.0000      -0.614381       -16.7182
  39   1.0000      -0.609828       -16.5943
  40   1.0000      -0.607898       -16.5417
  41   1.0000      -0.591762       -16.1027
  42   1.0000      -0.578764       -15.7490
  43   1.0000      -0.559669       -15.2294
  44   1.0000      -0.540207       -14.6998
  45   1.0000      -0.528005       -14.3677
  46   1.0000      -0.503539       -13.7020
  47   1.0000      -0.491011       -13.3611
  48   1.0000      -0.478654       -13.0248
  49   1.0000      -0.475048       -12.9267
  50   1.0000      -0.469535       -12.7767
  51   1.0000      -0.459209       -12.4957
  52   1.0000      -0.456623       -12.4253
  53   1.0000      -0.435310       -11.8454
  54   1.0000      -0.430492       -11.7143
  55   1.0000      -0.428164       -11.6509
  56   1.0000      -0.425012       -11.5652
  57   1.0000      -0.423287       -11.5182
  58   1.0000      -0.419008       -11.4018
  59   1.0000      -0.411345       -11.1933
  60   1.0000      -0.396903       -10.8003
  61   1.0000      -0.391154       -10.6438
  62   1.0000      -0.381254       -10.3744
  63   1.0000      -0.376377       -10.2417
  64   1.0000      -0.374446       -10.1892
  65   1.0000      -0.364167        -9.9095
  66   1.0000      -0.360553        -9.8112
  67   1.0000      -0.355640        -9.6775
  68   1.0000      -0.350730        -9.5439
  69   1.0000      -0.349518        -9.5109
  70   1.0000      -0.338200        -9.2029
  71   1.0000      -0.332441        -9.0462
  72   1.0000      -0.329892        -8.9768
  73   1.0000      -0.329022        -8.9532
  74   1.0000      -0.327189        -8.9033
  75   1.0000      -0.323403        -8.8003
  76   1.0000      -0.320653        -8.7254
  77   1.0000      -0.296870        -8.0782
  78   1.0000      -0.275087        -7.4855
  79   1.0000      -0.267012        -7.2658
  80   1.0000      -0.259978        -7.0744
  81   1.0000      -0.257393        -7.0040
  82   1.0000      -0.250550        -6.8178
  83   1.0000      -0.210263        -5.7215
  84   0.0000      -0.085899        -2.3374
  85   0.0000      -0.048589        -1.3222
  86   0.0000      -0.008952        -0.2436
  87   0.0000      -0.006441        -0.1753
  88   0.0000       0.029317         0.7978

MULLIKEN ATOMIC CHARGES AND SPIN POPULATIONS
--------------------------------------------
   0 C :    0.146480    0.099745
   1 C :    0.276221   -0.066610
   2 C :    0.627283    0.030030
   3 C :   -0.177613    0.223787
   4 C :    0.071399   -0.169572
   5 C :   -0.010048    0.219377
   6 C :   -0.023284   -0.111375
   7 C :   -0.076218    0.233974
   8 C :    0.007917   -0.118901
   9 H :   -0.050300   -0.009117
  10 H :   -0.054541    0.004325
  11 C :   -0.100356    0.694738
  12 H :   -0.026035   -0.030190
  13 C :    0.034510   -0.047627
  14 H :    0.029502    0.031171
  15 H :    0.029524    0.031045
  16 C :   -0.039009    0.002257
  17 H :    0.012207    0.000472
  18 H :    0.012214    0.000460
  19 C :    0.006697   -0.000177
  20 H :    0.017678    0.000151
  21 H :    0.017686    0.000152
  22 C :    0.043692   -0.018576
  23 H :    0.031752    0.009988
  24 H :    0.031754    0.009990
  25 C :   -0.035781    0.000868
  26 H :    0.016393    0.000170
  27 H :    0.016383    0.000170
  28 C :   -0.023667    0.000024
  29 H :    0.005963    0.000052
  30 H :    0.005962    0.000052
  31 C :    0.003762   -0.000080
  32 H :    0.016782    0.000023
  33 H :    0.016778    0.000023
  34 C :   -0.606438   -0.050526
  35 H :   -0.029823    0.002014
  36 H :    0.013171   -0.000200
  37 H :    0.012557   -0.000005
  38 C :    0.033280    0.028839
  39 C :    0.040522   -0.013883
  40 C :    0.025828    0.026296
  41 C :   -0.258336   -0.023384
  42 C :    0.031012    0.026378
  43 C :    0.041117   -0.013870
  44 H :   -0.027908   -0.001324
  45 H :   -0.041182   -0.001157
  46 H :   -0.028218    0.000552
  47 H :   -0.027848    0.000551
  48 H :   -0.039421   -0.001099
Sum of atomic charges         :    0.0000000

LOEWDIN ATOMIC CHARGES AND SPIN POPULATIONS
-------------------------------------------
   0 C :   -0.021899    0.073097
   1 C :   -0.017170   -0.029952
   2 C :   -0.001064    0.013999
   3 C :   -0.038406    0.159993
   4 C :   -0.039855   -0.072482
   5 C :    0.010870    0.165195
   6 C :   -0.054983   -0.061098
   7 C :   -0.005343    0.172693
   8 C :   -0.008138   -0.065134
   9 H :    0.029398    0.000870
  10 H :    0.029677   -0.000457
  11 C :    0.012515    0.569614
  12 H :    0.021386    0.003363
  13 C :   -0.054395    0.005376
  14 H :    0.034600    0.024327
  15 H :    0.034571    0.024222
  16 C :   -0.046042    0.001154
  17 H :    0.025517    0.000300
  18 H :    0.025513    0.000293
  19 C :   -0.067499   -0.000043
  20 H :    0.025690    0.000244
  21 H :    0.025690    0.000245
  22 C :   -0.034826    0.002177
  23 H :    0.039703    0.007862
  24 H :    0.039703    0.007864
  25 C :   -0.043542    0.000150
  26 H :    0.024356    0.000053
  27 H :    0.024358    0.000053
  28 C :   -0.046915    0.000016
  29 H :    0.024150    0.000088
  30 H :    0.024149    0.000088
  31 C :   -0.067555   -0.000038
  32 H :    0.025083    0.000016
  33 H :    0.025082    0.000016
  34 C :   -0.050990   -0.039982
  35 H :    0.022584   -0.000067
  36 H :    0.028229   -0.000110
  37 H :    0.027440   -0.000007
  38 C :   -0.021879    0.022286
  39 C :   -0.024018   -0.008187
  40 C :   -0.002855    0.020296
  41 C :   -0.053426   -0.010638
  42 C :   -0.001424    0.020354
  43 C :   -0.023900   -0.008168
  44 H :    0.027969    0.000084
  45 H :    0.029872    0.000019
  46 H :    0.029227   -0.000034
  47 H :    0.029285   -0.000032
  48 H :    0.029506    0.000022

  Mayer bond orders larger than 0.100000
B(  0-C ,  1-C ) :   1.7147 B(  0-C , 41-C ) :   0.9320 B(  1-C ,  3-C ) :   0.8772
B(  1-C , 41-C ) :  -0.1817 B(  2-C ,  6-C ) :   0.9018 B(  2-C , 34-C ) :   2.1200
B(  3-C ,  4-C ) :   1.2776 B(  3-C ,  8-C ) :   1.4024 B(  4-C ,  5-C ) :   1.2852
B(  4-C , 11-C ) :   1.3832 B(  5-C ,  6-C ) :   1.4434 B(  5-C ,  9-H ) :   0.9178
B(  6-C ,  7-C ) :   1.3360 B(  7-C ,  8-C ) :   1.4211 B(  7-C , 22-C ) :   1.0929
B(  8-C , 10-H ) :   0.9214 B( 11-C , 12-H ) :   0.8994 B( 11-C , 13-C ) :   1.0839
B( 13-C , 14-H ) :   0.9115 B( 13-C , 15-H ) :   0.9115 B( 13-C , 16-C ) :   1.0716
B( 16-C , 17-H ) :   0.9438 B( 16-C , 18-H ) :   0.9437 B( 16-C , 19-C ) :   1.1066
B( 19-C , 20-H ) :   0.9653 B( 19-C , 21-H ) :   0.9653 B( 19-C , 36-H ) :   0.9608
B( 22-C , 23-H ) :   0.8964 B( 22-C , 24-H ) :   0.8964 B( 22-C , 25-C ) :   1.1040
B( 25-C , 26-H ) :   0.9292 B( 25-C , 27-H ) :   0.9292 B( 25-C , 28-C ) :   1.0750
B( 28-C , 29-H ) :   0.9410 B( 28-C , 30-H ) :   0.9410 B( 28-C , 31-C ) :   1.1060
B( 31-C , 32-H ) :   0.9662 B( 31-C , 33-H ) :   0.9662 B( 31-C , 37-H ) :   0.9617
B( 34-C , 35-H ) :   1.1191 B( 38-C , 39-C ) :   1.4427 B( 38-C , 43-C ) :   1.4425
B( 38-C , 44-H ) :   0.9433 B( 39-C , 40-C ) :   1.4710 B( 39-C , 46-H ) :   0.9379
B( 40-C , 41-C ) :   1.4369 B( 40-C , 48-H ) :   0.9406 B( 41-C , 42-C ) :   1.4390
B( 42-C , 43-C ) :   1.4721 B( 42-C , 45-H ) :   0.9399 B( 43-C , 47-H ) :   0.9379

FINAL SINGLE POINT ENERGY      -928.902320216432

DIPOLE MOMENT
-------------
                                X             Y             Z
Electronic contribution:     10.55359       2.01411       0.00512
Nuclear contribution   :    -10.39741      -1.99660      -0.00444
                        -----------------------------------------
Total Dipole Moment    :      0.15618       0.01752       0.00067
                        -----------------------------------------
Magnitude (a.u.)       :      0.15716
Magnitude (Debye)      :      0.39946

Rotational constants in cm-1:     0.006531     0.004289     0.002597
Rotational constants in MHz :   195.785594   128.568523    77.869221

                             ****ORCA TERMINATED NORMALLY****
TOTAL RUN TIME: 0 days 0 hours 8 minutes 26 seconds 601 msec
