                         Program Version 5.0.4 -  RELEASE  -
|  1> ! B3LYP cc-pVDZ OPT
|  2> %pal nprocs 16 end
|  3> *XYZFile 0 2 model.xyz
|  4>
|  5>                          ****END OF INPUT****
 Total Charge           Charge          ....    0
 Multiplicity           Mult            ....    2
 Number of Electrons    NEL             ....  169
FINAL SINGLE POINT ENERGY      -928.902320156731
                    ***********************HURRAY********************

CARTESIAN COORDINATES (ANGSTROEM)
---------------------------------
  C      4.055706   -0.073371    0.001296
  C      2.833589   -0.006538   -0.001788
  C     -2.844896    0.019441   -0.004853
  C      1.413452    0.037492   -0.002626
  C      0.700746    1.295345   -0.002276
  C     -0.721463    1.219527   -0.003060
  C     -1.411403    0.007110   -0.004114
  C     -0.698475   -1.233396   -0.004423
  C      0.695638   -1.174525   -0.003765
  H     -1.303846    2.141153   -0.002844
  H      1.274517   -2.097895   -0.004026
  C      1.376832    2.533498   -0.001126
  H      2.469694    2.505632   -0.000730
  C      0.711306    3.877473   -0.000581
  H      0.041481    3.969632   -0.880471
  H      0.037166    3.966822    0.876259
  C      1.701380    5.049569    0.003759
  H      2.358533    4.962282    0.888281
  H      2.362997    4.965135   -0.877712
  C      1.013977    6.416298    0.004221
  H      0.370441    6.540985    0.892269
  H      0.374953    6.543854   -0.886675
  C     -1.466173   -2.538927   -0.005427
  H     -2.145358   -2.541094    0.867612
  H     -2.144360   -2.540372   -0.879243
  C     -0.640808   -3.828219   -0.005469
  H      0.023102   -3.849434   -0.889318
  H      0.022055   -3.850135    0.879151
  C     -1.515522   -5.087936   -0.006485
  H     -2.182461   -5.068245    0.875368
  H     -2.181282   -5.067647   -0.889215
  C     -0.702818   -6.385152   -0.006382
  H     -0.053167   -6.450604    0.883538
  H     -0.051837   -6.449911   -0.895380
  C     -4.060788    0.033376   -0.006353
  H     -5.133102    0.050110   -0.008357
  H      1.748939    7.237269    0.007413
  H     -1.357157   -7.271992   -0.007216
  C      8.290695   -0.349767    0.011455
  C      7.669171    0.904370    0.011023
  C      6.278250    1.001632    0.007668
  C      5.479338   -0.163533    0.004673
  C      6.117761   -1.424109    0.005135
  C      7.509230   -1.511054    0.008499
  H      9.380814   -0.421986    0.014080
  H      5.506311   -2.328412    0.002815
  H      8.273777    1.814555    0.013324
  H      7.988698   -2.492952    0.008817
  H      5.792544    1.979267    0.007327

 Multiplicity           Mult            ....    2
 Number of Electrons    NEL             ....  169
 Basis Dimension        Dim             ....  461

ORBITAL ENERGIES
----------------
                 SPIN UP ORBITALS
  NO   OCC          E(Eh)            E(eV)
   0   1.0000     -10.215391      -277.9749
   1   1.0000     -10.214409      -277.9482
   2   1.0000     -10.211673      -277.8737
   3   1.0000     -10.202685      -277.6292
   4   1.0000     -10.198398      -277.5125
   5   1.0000     -10.196447      -277.4594
   6   1.0000     -10.196196      -277.4526
   7   1.0000     -10.195189      -277.4252
   8   1.0000     -10.195112      -277.4231
   9   1.0000     -10.194437      -277.4047
  10   1.0000     -10.194261      -277.3999
  11   1.0000     -10.192571      -277.3540
  12   1.0000     -10.191566      -277.3266
  13   1.0000     -10.189734      -277.2768
  14   1.0000     -10.189188      -277.2619
  15   1.0000     -10.188437      -277.2415
  16   1.0000     -10.186735      -277.1952
  17   1.0000     -10.186465      -277.1878
  18   1.0000     -10.186005      -277.1753
  19   1.0000     -10.184396      -277.1315
  20   1.0000     -10.181561      -277.0544
  21   1.0000     -10.181371      -277.0492
  22   1.0000     -10.177374      -276.9404
  23   1.0000     -10.175447      -276.8880
  24   1.0000      -0.873918       -23.7805
  25   1.0000      -0.862492       -23.4696
  26   1.0000      -0.820091       -22.3158
  27   1.0000      -0.799065       -21.7437
  28   1.0000      -0.795891       -21.6573
  29   1.0000      -0.778097       -21.1731
  30   1.0000      -0.767739       -20.8912
  31   1.0000      -0.750232       -20.4149
  32   1.0000      -0.744633       -20.2625
  33   1.0000      -0.730346       -19.8737
  34   1.0000      -0.713549       -19.4166
  35   1.0000      -0.697700       -18.9854
  36   1.0000      -0.656857       -17.8740
  37   1.0000      -0.643826       -17.5194
  38   1.0000      -0.618027       -16.8174
  39   1.0000      -0.612664       -16.6714
  40   1.0000      -0.608131       -16.5481
  41   1.0000      -0.592658       -16.1270
  42   1.0000      -0.580362       -15.7925
  43   1.0000      -0.562101       -15.2955
  44   1.0000      -0.540752       -14.7146
  45   1.0000      -0.529286       -14.4026
  46   1.0000      -0.506729       -13.7888
  47   1.0000      -0.491820       -13.3831
  48   1.0000      -0.479897       -13.0587
  49   1.0000      -0.476005       -12.9528
  50   1.0000      -0.470380       -12.7997
  51   1.0000      -0.462601       -12.5880
  52   1.0000      -0.456834       -12.4311
  53   1.0000      -0.435921       -11.8620
  54   1.0000      -0.432316       -11.7639
  55   1.0000      -0.429412       -11.6849
  56   1.0000      -0.426179       -11.5969
  57   1.0000      -0.423390       -11.5210
  58   1.0000      -0.421623       -11.4730
  59   1.0000      -0.411826       -11.2063
  60   1.0000      -0.398686       -10.8488
  61   1.0000      -0.397978       -10.8295
  62   1.0000      -0.383897       -10.4464
  63   1.0000      -0.378662       -10.3039
  64   1.0000      -0.377061       -10.2604
  65   1.0000      -0.365293        -9.9401
  66   1.0000      -0.361005        -9.8234
  67   1.0000      -0.356485        -9.7004
  68   1.0000      -0.353702        -9.6247
  69   1.0000      -0.349683        -9.5154
  70   1.0000      -0.340423        -9.2634
  71   1.0000      -0.332963        -9.0604
  72   1.0000      -0.331481        -9.0201
  73   1.0000      -0.331266        -9.0142
  74   1.0000      -0.327530        -8.9125
  75   1.0000      -0.324167        -8.8210
  76   1.0000      -0.321294        -8.7429
  77   1.0000      -0.299685        -8.1548
  78   1.0000      -0.275115        -7.4863
  79   1.0000      -0.273313        -7.4372
  80   1.0000      -0.267436        -7.2773
  81   1.0000      -0.258404        -7.0315
  82   1.0000      -0.255342        -6.9482
  83   1.0000      -0.216707        -5.8969
  84   1.0000      -0.170840        -4.6488
  85   0.0000      -0.056624        -1.5408
  86   0.0000      -0.011578        -0.3150
  87   0.0000      -0.009822        -0.2673
  88   0.0000       0.013103         0.3566
  89   0.0000       0.041630         1.1328

                 SPIN DOWN ORBITALS
  NO   OCC          E(Eh)            E(eV)
   0   1.0000     -10.215747      -277.9846
   1   1.0000     -10.213312      -277.9184
   2   1.0000     -10.211040      -277.8565
   3   1.0000     -10.200858      -277.5795
   4   1.0000     -10.199275      -277.5364
   5   1.0000     -10.196066      -277.4490
   6   1.0000     -10.195818      -277.4423
   7   1.0000     -10.194905      -277.4175
   8   1.0000     -10.194603      -277.4093
   9   1.0000     -10.194253      -277.3997
  10   1.0000     -10.192105      -277.3413
  11   1.0000     -10.191328      -277.3201
  12   1.0000     -10.191165      -277.3157
  13   1.0000     -10.189108      -277.2597
  14   1.0000     -10.188821      -277.2519
  15   1.0000     -10.186667      -277.1933
  16   1.0000     -10.186655      -277.1930
  17   1.0000     -10.186643      -277.1926
  18   1.0000     -10.184357      -277.1304
  19   1.0000     -10.182729      -277.0861
  20   1.0000     -10.181558      -277.0543
  21   1.0000     -10.181370      -277.0492
  22   1.0000     -10.177382      -276.9406
  23   1.0000     -10.175449      -276.8880
  24   1.0000      -0.870609       -23.6905
  25   1.0000      -0.862028       -23.4570
  26   1.0000      -0.815206       -22.1829
  27   1.0000      -0.796366       -21.6702
  28   1.0000      -0.794691       -21.6246
  29   1.0000      -0.777246       -21.1499
  30   1.0000      -0.765727       -20.8365
  31   1.0000      -0.749874       -20.4051
  32   1.0000      -0.743518       -20.2322
  33   1.0000      -0.726479       -19.7685
  34   1.0000      -0.712766       -19.3954
  35   1.0000      -0.695512       -18.9258
  36   1.0000      -0.653835       -17.7918
  37   1.0000      -0.642603       -17.4861
  38   1.0000      -0.614382       -16.7182
  39   1.0000      -0.609828       -16.5943
  40   1.0000      -0.607896       -16.5417
  41   1.0000      -0.591760       -16.1026
  42   1.0000      -0.578758       -15.7488
  43   1.0000      -0.559665       -15.2293
  44   1.0000      -0.540207       -14.6998
  45   1.0000      -0.528004       -14.3677
  46   1.0000      -0.503541       -13.7020
  47   1.0000      -0.491010       -13.3611
  48   1.0000      -0.478655       -13.0249
  49   1.0000      -0.475049       -12.9267
  50   1.0000      -0.469537       -12.7767
  51   1.0000      -0.459208       -12.4957
  52   1.0000      -0.456625       -12.4254
  53   1.0000      -0.435311       -11.8454
  54   1.0000      -0.430493       -11.7143
  55   1.0000      -0.428168       -11.6510
  56   1.0000      -0.425015       -11.5653
  57   1.0000      -0.423284       -11.5181
  58   1.0000      -0.419008       -11.4018
  59   1.0000      -0.411350       -11.1934
  60   1.0000      -0.396905       -10.8003
  61   1.0000      -0.391150       -10.6437
  62   1.0000      -0.381253       -10.3744
  63   1.0000      -0.376383       -10.2419
  64   1.0000      -0.374444       -10.1891
  65   1.0000      -0.364170        -9.9096
  66   1.0000      -0.360558        -9.8113
  67   1.0000      -0.355645        -9.6776
  68   1.0000      -0.350728        -9.5438
  69   1.0000      -0.349514        -9.5108
  70   1.0000      -0.338202        -9.2029
  71   1.0000      -0.332439        -9.0461
  72   1.0000      -0.329889        -8.9767
  73   1.0000      -0.329017        -8.9530
  74   1.0000      -0.327187        -8.9032
  75   1.0000      -0.323406        -8.8003
  76   1.0000      -0.320648        -8.7253
  77   1.0000      -0.296870        -8.0782
  78   1.0000      -0.275086        -7.4855
  79   1.0000      -0.267012        -7.2658
  80   1.0000      -0.259978        -7.0744
  81   1.0000      -0.257393        -7.0040
  82   1.0000      -0.250550        -6.8178
  83   1.0000      -0.210264        -5.7216
  84   0.0000      -0.085897        -2.3374
  85   0.0000      -0.048591        -1.3222
  86   0.0000      -0.008950        -0.2435
  87   0.0000      -0.006442        -0.1753
  88   0.0000       0.029313         0.7977

MULLIKEN ATOMIC CHARGES AND SPIN POPULATIONS
--------------------------------------------
   0 C :    0.146499    0.099733
   1 C :    0.276207   -0.066603
   2 C :    0.627298    0.030032
   3 C :   -0.177591    0.223775
   4 C :    0.071354   -0.169568
   5 C :   -0.010029    0.219349
   6 C :   -0.023264   -0.111365
   7 C :   -0.076222    0.233959
   8 C :    0.007906   -0.118891
   9 H :   -0.050296   -0.009116
  10 H :   -0.054542    0.004324
  11 C :   -0.100328    0.694776
  12 H :   -0.026028   -0.030191
  13 C :    0.034489   -0.047632
  14 H :    0.029499    0.031182
  15 H :    0.029522    0.031047
  16 C :   -0.039002    0.002257
  17 H :    0.012207    0.000473
  18 H :    0.012213    0.000460
  19 C :    0.006703   -0.000177
  20 H :    0.017676    0.000151
  21 H :    0.017684    0.000152
  22 C :    0.043687   -0.018575
  23 H :    0.031754    0.009987
  24 H :    0.031758    0.009990
  25 C :   -0.035792    0.000868
  26 H :    0.016392    0.000170
  27 H :    0.016380    0.000170
  28 C :   -0.023654    0.000024
  29 H :    0.005964    0.000052
  30 H :    0.005963    0.000052
  31 C :    0.003758   -0.000080
  32 H :    0.016779    0.000023
  33 H :    0.016774    0.000023
  34 C :   -0.606458   -0.050524
  35 H :   -0.029823    0.002012
  36 H :    0.013174   -0.000200
  37 H :    0.012554   -0.000005
  38 C :    0.033270    0.028824
  39 C :    0.040515   -0.013871
  40 C :    0.025838    0.026280
  41 C :   -0.258326   -0.023374
  42 C :    0.031001    0.026364
  43 C :    0.041114   -0.013859
  44 H :   -0.027905   -0.001323
  45 H :   -0.041187   -0.001156
  46 H :   -0.028220    0.000551
  47 H :   -0.027848    0.000550
  48 H :   -0.039418   -0.001098
Sum of atomic charges         :   -0.0000000

LOEWDIN ATOMIC CHARGES AND SPIN POPULATIONS
-------------------------------------------
   0 C :   -0.021902    0.073077
   1 C :   -0.017164   -0.029940
   2 C :   -0.001062    0.013991
   3 C :   -0.038403    0.159985
   4 C :   -0.039848   -0.072480
   5 C :    0.010864    0.165171
   6 C :   -0.054976   -0.061094
   7 C :   -0.005340    0.172682
   8 C :   -0.008140   -0.065127
   9 H :    0.029400    0.000870
  10 H :    0.029675   -0.000457
  11 C :    0.012517    0.569647
  12 H :    0.021389    0.003363
  13 C :   -0.054407    0.005378
  14 H :    0.034602    0.024335
  15 H :    0.034571    0.024223
  16 C :   -0.046049    0.001155
  17 H :    0.025519    0.000300
  18 H :    0.025515    0.000293
  19 C :   -0.067499   -0.000043
  20 H :    0.025691    0.000244
  21 H :    0.025691    0.000245
  22 C :   -0.034827    0.002177
  23 H :    0.039703    0.007861
  24 H :    0.039704    0.007863
  25 C :   -0.043552    0.000150
  26 H :    0.024358    0.000053
  27 H :    0.024360    0.000053
  28 C :   -0.046923    0.000016
  29 H :    0.024154    0.000088
  30 H :    0.024153    0.000088
  31 C :   -0.067557   -0.000038
  32 H :    0.025084    0.000016
  33 H :    0.025083    0.000016
  34 C :   -0.050992   -0.039971
  35 H :    0.022585   -0.000068
  36 H :    0.028231   -0.000110
  37 H :    0.027440   -0.000007
  38 C :   -0.021879    0.022275
  39 C :   -0.024020   -0.008178
  40 C :   -0.002855    0.020283
  41 C :   -0.053429   -0.010629
  42 C :   -0.001428    0.020343
  43 C :   -0.023897   -0.008160
  44 H :    0.027971    0.000084
  45 H :    0.029873    0.000019
  46 H :    0.029226   -0.000034
  47 H :    0.029284   -0.000033
  48 H :    0.029507    0.000022

  Mayer bond orders larger than 0.100000
B(  0-C ,  1-C ) :   1.7147 B(  0-C , 41-C ) :   0.9320 B(  1-C ,  3-C ) :   0.8772
B(  1-C , 41-C ) :  -0.1817 B(  2-C ,  6-C ) :   0.9018 B(  2-C , 34-C ) :   2.1200
B(  3-C ,  4-C ) :   1.2776 B(  3-C ,  8-C ) :   1.4023 B(  4-C ,  5-C ) :   1.2852
B(  4-C , 11-C ) :   1.3832 B(  5-C ,  6-C ) :   1.4434 B(  5-C ,  9-H ) :   0.9178
B(  6-C ,  7-C ) :   1.3360 B(  7-C ,  8-C ) :   1.4211 B(  7-C , 22-C ) :   1.0929
B(  8-C , 10-H ) :   0.9214 B( 11-C , 12-H ) :   0.8994 B( 11-C , 13-C ) :   1.0840
B( 13-C , 14-H ) :   0.9115 B( 13-C , 15-H ) :   0.9115 B( 13-C , 16-C ) :   1.0716
B( 16-C , 17-H ) :   0.9438 B( 16-C , 18-H ) :   0.9437 B( 16-C , 19-C ) :   1.1066
B( 19-C , 20-H ) :   0.9653 B( 19-C , 21-H ) :   0.9653 B( 19-C , 36-H ) :   0.9608
B( 22-C , 23-H ) :   0.8964 B( 22-C , 24-H ) :   0.8964 B( 22-C , 25-C ) :   1.1040
B( 25-C , 26-H ) :   0.9292 B( 25-C , 27-H ) :   0.9292 B( 25-C , 28-C ) :   1.0750
B( 28-C , 29-H ) :   0.9410 B( 28-C , 30-H ) :   0.9410 B( 28-C , 31-C ) :   1.1060
B( 31-C , 32-H ) :   0.9662 B( 31-C , 33-H ) :   0.9662 B( 31-C , 37-H ) :   0.9617
B( 34-C , 35-H ) :   1.1191 B( 38-C , 39-C ) :   1.4427 B( 38-C , 43-C ) :   1.4425
B( 38-C , 44-H ) :   0.9433 B( 39-C , 40-C ) :   1.4711 B( 39-C , 46-H ) :   0.9379
B( 40-C , 41-C ) :   1.4368 B( 40-C , 48-H ) :   0.9406 B( 41-C , 42-C ) :   1.4390
B( 42-C , 43-C ) :   1.4721 B( 42-C , 45-H ) :   0.9399 B( 43-C , 47-H ) :   0.9379

FINAL SINGLE POINT ENERGY      -928.902320302558

DIPOLE MOMENT
-------------
                                X             Y             Z
Electronic contribution:     10.55435       2.01475       0.00403
Nuclear contribution   :    -10.39818      -1.99730      -0.00336
                        -----------------------------------------
Total Dipole Moment    :      0.15617       0.01745       0.00067
                        -----------------------------------------
Magnitude (a.u.)       :      0.15715
Magnitude (Debye)      :      0.39944

Rotational constants in cm-1:     0.006531     0.004288     0.002597
Rotational constants in MHz :   195.794338   128.564357    77.869077

                             ****ORCA TERMINATED NORMALLY****
TOTAL RUN TIME: 0 days 0 hours 3 minutes 46 seconds 641 msec
