                         Program Version 5.0.4 -  RELEASE  -
|  1> ! B3LYP cc-pVDZ AUTOAUX
|  2> %pal nprocs 16 end
|  3> *XYZFile 0 2 opt_cc-pVDZ.xyz
|  4> %EPRNMR
|  5>         GTENSOR   TRUE
|  6>         NUCLEI    = ALL H {SHIFT, AISO, ADIP, AORB}
|  7>         ORI       CenterOfElCharge
|  8> END
|  9>
| 10>                          ****END OF INPUT****

CARTESIAN COORDINATES (ANGSTROEM)
---------------------------------
  C      2.831560   -0.005050   -0.008351
  C     -1.314368   -0.014444   -0.013002
  C     -0.703781   -1.259487   -0.014485
  C      0.699337   -1.202602   -0.012648
  C      1.402122    0.024137   -0.009613
  C      0.708095    1.264372   -0.008018
  C     -0.700161    1.218096   -0.009888
  H      1.284026   -2.124251   -0.013666
  H     -1.286086    2.138909   -0.008885
  C     -1.509013   -2.547945   -0.017590
  H     -2.181527   -2.530547   -0.894723
  H     -2.180202   -2.535583    0.860672
  C     -0.707209   -3.852059   -0.021818
  H     -0.043807   -3.879795   -0.905932
  H     -0.044192   -3.885744    0.862381
  C     -1.601358   -5.097661   -0.026108
  H     -2.267877   -5.070414    0.855980
  H     -2.266636   -5.065212   -0.908957
  C     -0.809194   -6.407509   -0.029431
  H     -0.160822   -6.485890    0.860367
  H     -0.159097   -6.480321   -0.918444
  C      1.482955    2.567860   -0.004606
  H      2.158864    2.564104    0.870565
  H      2.159597    2.568248   -0.879235
  C      0.661643    3.859797   -0.001910
  H     -0.000688    3.885703   -0.886980
  H     -0.002286    3.881001    0.882084
  C      1.539602    5.117171    0.002176
  H      2.204838    5.093143    0.885271
  H      2.206756    5.097530   -0.879578
  C      0.731157    6.416961    0.004549
  H      0.079858    6.482156    0.893279
  H      0.082162    6.486851   -0.885508
  C      4.053049   -0.040501   -0.009430
  H     -1.477612   -7.283785   -0.032834
  H      1.388386    7.301667    0.007743
  C      5.480881   -0.086180   -0.008637
  C      6.160755   -1.323809   -0.010717
  C      7.554788   -1.364056   -0.009920
  C      8.296935   -0.177568   -0.007087
  C      7.633420    1.054720   -0.005057
  C      6.239755    1.104680   -0.005839
  H      9.388871   -0.213318   -0.006476
  H      8.206794    1.984947   -0.002851
  H      5.580332   -2.248368   -0.012945
  H      5.720631    2.065028   -0.004274
  H      8.066893   -2.329380   -0.011540

 Total Charge           Charge          ....    0
 Multiplicity           Mult            ....    2
 Number of Electrons    NEL             ....  157
 Basis Dimension        Dim             ....  433

ORBITAL ENERGIES
----------------
                 SPIN UP ORBITALS
  NO   OCC          E(Eh)            E(eV)
   0   1.0000     -10.213992      -277.9369
   1   1.0000     -10.206987      -277.7462
   2   1.0000     -10.203564      -277.6531
   3   1.0000     -10.203407      -277.6488
   4   1.0000     -10.199732      -277.5488
   5   1.0000     -10.194598      -277.4091
   6   1.0000     -10.194446      -277.4050
   7   1.0000     -10.194363      -277.4027
   8   1.0000     -10.193618      -277.3824
   9   1.0000     -10.193279      -277.3732
  10   1.0000     -10.192969      -277.3648
  11   1.0000     -10.191428      -277.3229
  12   1.0000     -10.190040      -277.2851
  13   1.0000     -10.186692      -277.1940
  14   1.0000     -10.186075      -277.1772
  15   1.0000     -10.183854      -277.1167
  16   1.0000     -10.182772      -277.0873
  17   1.0000     -10.182604      -277.0827
  18   1.0000     -10.182419      -277.0777
  19   1.0000     -10.182247      -277.0730
  20   1.0000     -10.176327      -276.9119
  21   1.0000     -10.176160      -276.9074
  22   1.0000      -0.870698       -23.6929
  23   1.0000      -0.860722       -23.4214
  24   1.0000      -0.813851       -22.1460
  25   1.0000      -0.795861       -21.6565
  26   1.0000      -0.786781       -21.4094
  27   1.0000      -0.769845       -20.9485
  28   1.0000      -0.760147       -20.6847
  29   1.0000      -0.748582       -20.3699
  30   1.0000      -0.732257       -19.9257
  31   1.0000      -0.712421       -19.3860
  32   1.0000      -0.698270       -19.0009
  33   1.0000      -0.652727       -17.7616
  34   1.0000      -0.630624       -17.1601
  35   1.0000      -0.617618       -16.8062
  36   1.0000      -0.606746       -16.5104
  37   1.0000      -0.605570       -16.4784
  38   1.0000      -0.582028       -15.8378
  39   1.0000      -0.577100       -15.7037
  40   1.0000      -0.563193       -15.3253
  41   1.0000      -0.534627       -14.5479
  42   1.0000      -0.506513       -13.7829
  43   1.0000      -0.477798       -13.0015
  44   1.0000      -0.471875       -12.8404
  45   1.0000      -0.471408       -12.8277
  46   1.0000      -0.470325       -12.7982
  47   1.0000      -0.455212       -12.3870
  48   1.0000      -0.441082       -12.0025
  49   1.0000      -0.434782       -11.8310
  50   1.0000      -0.427545       -11.6341
  51   1.0000      -0.423904       -11.5350
  52   1.0000      -0.422488       -11.4965
  53   1.0000      -0.421920       -11.4810
  54   1.0000      -0.417057       -11.3487
  55   1.0000      -0.413688       -11.2570
  56   1.0000      -0.411813       -11.2060
  57   1.0000      -0.381149       -10.3716
  58   1.0000      -0.378461       -10.2984
  59   1.0000      -0.372643       -10.1401
  60   1.0000      -0.366054        -9.9608
  61   1.0000      -0.364275        -9.9124
  62   1.0000      -0.357995        -9.7415
  63   1.0000      -0.357000        -9.7145
  64   1.0000      -0.348156        -9.4738
  65   1.0000      -0.341177        -9.2839
  66   1.0000      -0.334040        -9.0897
  67   1.0000      -0.331757        -9.0276
  68   1.0000      -0.327314        -8.9067
  69   1.0000      -0.324794        -8.8381
  70   1.0000      -0.322879        -8.7860
  71   1.0000      -0.322855        -8.7853
  72   1.0000      -0.312214        -8.4958
  73   1.0000      -0.268055        -7.2942
  74   1.0000      -0.265663        -7.2291
  75   1.0000      -0.256396        -6.9769
  76   1.0000      -0.242173        -6.5899
  77   1.0000      -0.235958        -6.4207
  78   1.0000      -0.209128        -5.6907
  79   0.0000      -0.049494        -1.3468
  80   0.0000      -0.008127        -0.2212
  81   0.0000      -0.003228        -0.0878
  82   0.0000       0.006370         0.1733
  83   0.0000       0.048474         1.3190

                 SPIN DOWN ORBITALS
  NO   OCC          E(Eh)            E(eV)
   0   1.0000     -10.213925      -277.9350
   1   1.0000     -10.207582      -277.7624
   2   1.0000     -10.202183      -277.6155
   3   1.0000     -10.199813      -277.5510
   4   1.0000     -10.194664      -277.4109
   5   1.0000     -10.194512      -277.4068
   6   1.0000     -10.193644      -277.3831
   7   1.0000     -10.193252      -277.3725
   8   1.0000     -10.193146      -277.3696
   9   1.0000     -10.192981      -277.3651
  10   1.0000     -10.191677      -277.3296
  11   1.0000     -10.189588      -277.2728
  12   1.0000     -10.188055      -277.2311
  13   1.0000     -10.186560      -277.1904
  14   1.0000     -10.186023      -277.1758
  15   1.0000     -10.183968      -277.1199
  16   1.0000     -10.182767      -277.0872
  17   1.0000     -10.182599      -277.0826
  18   1.0000     -10.182411      -277.0775
  19   1.0000     -10.182238      -277.0728
  20   1.0000     -10.176323      -276.9118
  21   1.0000     -10.176160      -276.9074
  22   1.0000      -0.865004       -23.5380
  23   1.0000      -0.860470       -23.4146
  24   1.0000      -0.812109       -22.0986
  25   1.0000      -0.795656       -21.6509
  26   1.0000      -0.784506       -21.3475
  27   1.0000      -0.768026       -20.8991
  28   1.0000      -0.756233       -20.5782
  29   1.0000      -0.748645       -20.3717
  30   1.0000      -0.730395       -19.8751
  31   1.0000      -0.709976       -19.3194
  32   1.0000      -0.696247       -18.9458
  33   1.0000      -0.651573       -17.7302
  34   1.0000      -0.628749       -17.1091
  35   1.0000      -0.615233       -16.7413
  36   1.0000      -0.606726       -16.5098
  37   1.0000      -0.600884       -16.3509
  38   1.0000      -0.580519       -15.7967
  39   1.0000      -0.572014       -15.5653
  40   1.0000      -0.560980       -15.2650
  41   1.0000      -0.533893       -14.5280
  42   1.0000      -0.505034       -13.7427
  43   1.0000      -0.477403       -12.9908
  44   1.0000      -0.471321       -12.8253
  45   1.0000      -0.470242       -12.7959
  46   1.0000      -0.466773       -12.7016
  47   1.0000      -0.455142       -12.3851
  48   1.0000      -0.434713       -11.8291
  49   1.0000      -0.433424       -11.7941
  50   1.0000      -0.425351       -11.5744
  51   1.0000      -0.422463       -11.4958
  52   1.0000      -0.422027       -11.4839
  53   1.0000      -0.421897       -11.4804
  54   1.0000      -0.416945       -11.3457
  55   1.0000      -0.411818       -11.2061
  56   1.0000      -0.406900       -11.0723
  57   1.0000      -0.381219       -10.3735
  58   1.0000      -0.374398       -10.1879
  59   1.0000      -0.371686       -10.1141
  60   1.0000      -0.365020        -9.9327
  61   1.0000      -0.361405        -9.8343
  62   1.0000      -0.357600        -9.7308
  63   1.0000      -0.356818        -9.7095
  64   1.0000      -0.348164        -9.4740
  65   1.0000      -0.340711        -9.2712
  66   1.0000      -0.333386        -9.0719
  67   1.0000      -0.330447        -8.9919
  68   1.0000      -0.326770        -8.8919
  69   1.0000      -0.324577        -8.8322
  70   1.0000      -0.322788        -8.7835
  71   1.0000      -0.321107        -8.7378
  72   1.0000      -0.310630        -8.4527
  73   1.0000      -0.265339        -7.2202
  74   1.0000      -0.265130        -7.2146
  75   1.0000      -0.256575        -6.9818
  76   1.0000      -0.242243        -6.5918
  77   1.0000      -0.205474        -5.5912
  78   0.0000      -0.077386        -2.1058
  79   0.0000      -0.045336        -1.2337
  80   0.0000      -0.008284        -0.2254
  81   0.0000      -0.003588        -0.0976
  82   0.0000       0.011123         0.3027

MULLIKEN ATOMIC CHARGES AND SPIN POPULATIONS
--------------------------------------------
   0 C :    0.233273    0.013834
   1 C :   -0.135375    0.999716
   2 C :   -0.015283   -0.067600
   3 C :    0.024268    0.058202
   4 C :   -0.165313   -0.040304
   5 C :   -0.100268    0.065126
   6 C :    0.058254   -0.066317
   7 H :   -0.050027    0.013230
   8 H :   -0.021561    0.018931
   9 C :    0.047159    0.015957
  10 H :    0.025924    0.000726
  11 H :    0.026023    0.000708
  12 C :   -0.042539    0.000563
  13 H :    0.016595   -0.000010
  14 H :    0.016630   -0.000009
  15 C :   -0.026382    0.000311
  16 H :    0.006418   -0.000031
  17 H :    0.006428   -0.000031
  18 C :    0.000223    0.000223
  19 H :    0.017392   -0.000015
  20 H :    0.017388   -0.000015
  21 C :    0.039480    0.005796
  22 H :    0.032860    0.002216
  23 H :    0.032878    0.002212
  24 C :   -0.035194    0.000340
  25 H :    0.015230    0.000094
  26 H :    0.015220    0.000095
  27 C :   -0.026181    0.000085
  28 H :    0.005893    0.000060
  29 H :    0.005892    0.000060
  30 C :    0.002967    0.000007
  31 H :    0.017222    0.000003
  32 H :    0.017229    0.000003
  33 C :    0.155685   -0.019597
  34 H :    0.013152    0.000030
  35 H :    0.012943   -0.000011
  36 C :   -0.246639    0.004475
  37 C :    0.029532   -0.004652
  38 C :    0.040065    0.002421
  39 C :    0.031929   -0.005000
  40 C :    0.039783    0.002416
  41 C :    0.027007   -0.004653
  42 H :   -0.028159    0.000227
  43 H :   -0.028048   -0.000095
  44 H :   -0.041311    0.000180
  45 H :   -0.040710    0.000189
  46 H :   -0.027951   -0.000095
Sum of atomic charges         :    0.0000000

LOEWDIN ATOMIC CHARGES AND SPIN POPULATIONS
-------------------------------------------
   0 C :   -0.016927    0.007089
   1 C :    0.024105    0.855148
   2 C :   -0.054414    0.022942
   3 C :    0.001945    0.047194
   4 C :   -0.060583   -0.025251
   5 C :    0.002148    0.048946
   6 C :   -0.057999    0.019100
   7 H :    0.028593    0.008230
   8 H :    0.032160    0.012901
   9 C :   -0.032449    0.011905
  10 H :    0.036726    0.000309
  11 H :    0.036759    0.000291
  12 C :   -0.044298    0.000474
  13 H :    0.024634    0.000039
  14 H :    0.024626    0.000039
  15 C :   -0.047318    0.000233
  16 H :    0.024031   -0.000012
  17 H :    0.024035   -0.000012
  18 C :   -0.067531    0.000161
  19 H :    0.025300   -0.000003
  20 H :    0.025303   -0.000003
  21 C :   -0.035601    0.005962
  22 H :    0.039155    0.001829
  23 H :    0.039169    0.001827
  24 C :   -0.043713    0.000494
  25 H :    0.024066    0.000077
  26 H :    0.024068    0.000077
  27 C :   -0.047191    0.000230
  28 H :    0.024039    0.000051
  29 H :    0.024038    0.000051
  30 C :   -0.067659   -0.000004
  31 H :    0.025213    0.000003
  32 H :    0.025212    0.000003
  33 C :   -0.028378   -0.014138
  34 H :    0.027627    0.000029
  35 H :    0.027562   -0.000007
  36 C :   -0.052741    0.002031
  37 C :   -0.002770   -0.003608
  38 C :   -0.024300    0.001431
  39 C :   -0.023193   -0.003869
  40 C :   -0.024480    0.001428
  41 C :   -0.003757   -0.003603
  42 H :    0.027725   -0.000016
  43 H :    0.028949    0.000006
  44 H :    0.029625   -0.000007
  45 H :    0.029464   -0.000003
  46 H :    0.029027    0.000007

  Mayer bond orders larger than 0.100000
B(  0-C ,  4-C ) :   0.9041 B(  0-C , 33-C ) :   1.7837 B(  0-C , 36-C ) :  -0.1631
B(  1-C ,  2-C ) :   1.3941 B(  1-C ,  6-C ) :   1.4447 B(  2-C ,  3-C ) :   1.4328
B(  2-C ,  9-C ) :   1.0449 B(  3-C ,  4-C ) :   1.4173 B(  3-C ,  7-H ) :   0.9221
B(  4-C ,  5-C ) :   1.4136 B(  4-C , 33-C ) :  -0.1016 B(  5-C ,  6-C ) :   1.4550
B(  5-C , 21-C ) :   1.0884 B(  6-C ,  8-H ) :   0.9099 B(  9-C , 10-H ) :   0.9171
B(  9-C , 11-H ) :   0.9170 B(  9-C , 12-C ) :   1.1024 B( 12-C , 13-H ) :   0.9310
B( 12-C , 14-H ) :   0.9309 B( 12-C , 15-C ) :   1.0754 B( 15-C , 16-H ) :   0.9416
B( 15-C , 17-H ) :   0.9416 B( 15-C , 18-C ) :   1.1056 B( 18-C , 19-H ) :   0.9666
B( 18-C , 20-H ) :   0.9666 B( 18-C , 34-H ) :   0.9622 B( 21-C , 22-H ) :   0.8984
B( 21-C , 23-H ) :   0.8984 B( 21-C , 24-C ) :   1.1010 B( 24-C , 25-H ) :   0.9298
B( 24-C , 26-H ) :   0.9298 B( 24-C , 27-C ) :   1.0757 B( 27-C , 28-H ) :   0.9412
B( 27-C , 29-H ) :   0.9412 B( 27-C , 30-C ) :   1.1061 B( 30-C , 31-H ) :   0.9662
B( 30-C , 32-H ) :   0.9662 B( 30-C , 35-H ) :   0.9617 B( 33-C , 36-C ) :   0.9229
B( 36-C , 37-C ) :   1.4427 B( 36-C , 41-C ) :   1.4397 B( 37-C , 38-C ) :   1.4700
B( 37-C , 44-H ) :   0.9398 B( 38-C , 39-C ) :   1.4449 B( 38-C , 46-H ) :   0.9377
B( 39-C , 40-C ) :   1.4442 B( 39-C , 42-H ) :   0.9431 B( 40-C , 41-C ) :   1.4702
B( 40-C , 43-H ) :   0.9378 B( 41-C , 45-H ) :   0.9401

FINAL SINGLE POINT ENERGY      -852.751667037716

DIPOLE MOMENT
-------------
                                X             Y             Z
Electronic contribution:     15.81978      -0.23790       0.01391
Nuclear contribution   :    -15.61999       0.23141      -0.01374
                        -----------------------------------------
Total Dipole Moment    :      0.19979      -0.00649       0.00017
                        -----------------------------------------
Magnitude (a.u.)       :      0.19990
Magnitude (Debye)      :      0.50811

Rotational constants in cm-1:     0.007051     0.004917     0.002910
Rotational constants in MHz :   211.388096   147.419085    87.227783

CHEMICAL SHIELDING SUMMARY (ppm)  --  Orbital contribution
----------------------------------------------------------

  Nucleus  Element    Isotropic     Anisotropy
  -------  -------  ------------   ------------
      7       H           97.194         11.052
      8       H            7.486         28.875
     10       H           10.057         35.641
     11       H           10.144         35.686
     13       H          101.603         12.776
     14       H          101.542         12.769
     16       H           -8.476         28.076
     17       H           -8.415         28.062
     19       H           46.023         11.215
     20       H           46.127         11.188
     22       H           99.007         27.703
     23       H           98.999         27.727
     25       H           44.535         28.218
     26       H           44.548         28.209
     28       H           59.333         17.003
     29       H           59.345         16.993
     31       H           -1.112         22.577
     32       H           -1.117         22.586
     34       H          -87.265       -103.314
     35       H          -49.672         25.970
     42       H         -114.163       -163.966
     43       H          -49.788          2.823
     44       H           86.837         18.720
     45       H           84.328         20.969
     46       H          -46.761          4.157

                             ****ORCA TERMINATED NORMALLY****
TOTAL RUN TIME: 0 days 1 hours 6 minutes 11 seconds 565 msec
