                         Program Version 5.0.4 -  RELEASE  -
|  1> ! B3LYP cc-pVDZ AUTOAUX
|  2> %pal nprocs 16 end
|  3> *XYZFile 0 2 opt_cc-pVDZ.xyz
|  4> %EPRNMR
|  5>         GTENSOR   TRUE
|  6>         NUCLEI    = ALL H {SHIFT, AISO, ADIP, AORB}
|  7>         ORI       GIAO
|  8> END
|  9>
| 10>                          ****END OF INPUT****

CARTESIAN COORDINATES (ANGSTROEM)
---------------------------------
  C      2.831560   -0.005050   -0.008351
  C     -1.314368   -0.014444   -0.013002
  C     -0.703781   -1.259487   -0.014485
  C      0.699337   -1.202602   -0.012648
  C      1.402122    0.024137   -0.009613
  C      0.708095    1.264372   -0.008018
  C     -0.700161    1.218096   -0.009888
  H      1.284026   -2.124251   -0.013666
  H     -1.286086    2.138909   -0.008885
  C     -1.509013   -2.547945   -0.017590
  H     -2.181527   -2.530547   -0.894723
  H     -2.180202   -2.535583    0.860672
  C     -0.707209   -3.852059   -0.021818
  H     -0.043807   -3.879795   -0.905932
  H     -0.044192   -3.885744    0.862381
  C     -1.601358   -5.097661   -0.026108
  H     -2.267877   -5.070414    0.855980
  H     -2.266636   -5.065212   -0.908957
  C     -0.809194   -6.407509   -0.029431
  H     -0.160822   -6.485890    0.860367
  H     -0.159097   -6.480321   -0.918444
  C      1.482955    2.567860   -0.004606
  H      2.158864    2.564104    0.870565
  H      2.159597    2.568248   -0.879235
  C      0.661643    3.859797   -0.001910
  H     -0.000688    3.885703   -0.886980
  H     -0.002286    3.881001    0.882084
  C      1.539602    5.117171    0.002176
  H      2.204838    5.093143    0.885271
  H      2.206756    5.097530   -0.879578
  C      0.731157    6.416961    0.004549
  H      0.079858    6.482156    0.893279
  H      0.082162    6.486851   -0.885508
  C      4.053049   -0.040501   -0.009430
  H     -1.477612   -7.283785   -0.032834
  H      1.388386    7.301667    0.007743
  C      5.480881   -0.086180   -0.008637
  C      6.160755   -1.323809   -0.010717
  C      7.554788   -1.364056   -0.009920
  C      8.296935   -0.177568   -0.007087
  C      7.633420    1.054720   -0.005057
  C      6.239755    1.104680   -0.005839
  H      9.388871   -0.213318   -0.006476
  H      8.206794    1.984947   -0.002851
  H      5.580332   -2.248368   -0.012945
  H      5.720631    2.065028   -0.004274
  H      8.066893   -2.329380   -0.011540

 Total Charge           Charge          ....    0
 Multiplicity           Mult            ....    2
 Number of Electrons    NEL             ....  157
 Basis Dimension        Dim             ....  433

ORBITAL ENERGIES
----------------
                 SPIN UP ORBITALS
  NO   OCC          E(Eh)            E(eV)
   0   1.0000     -10.213988      -277.9367
   1   1.0000     -10.206996      -277.7465
   2   1.0000     -10.203572      -277.6533
   3   1.0000     -10.203401      -277.6487
   4   1.0000     -10.199730      -277.5488
   5   1.0000     -10.194595      -277.4090
   6   1.0000     -10.194443      -277.4049
   7   1.0000     -10.194371      -277.4029
   8   1.0000     -10.193619      -277.3825
   9   1.0000     -10.193279      -277.3732
  10   1.0000     -10.192969      -277.3648
  11   1.0000     -10.191426      -277.3228
  12   1.0000     -10.190039      -277.2851
  13   1.0000     -10.186696      -277.1941
  14   1.0000     -10.186078      -277.1773
  15   1.0000     -10.183852      -277.1167
  16   1.0000     -10.182772      -277.0873
  17   1.0000     -10.182604      -277.0827
  18   1.0000     -10.182419      -277.0777
  19   1.0000     -10.182247      -277.0730
  20   1.0000     -10.176328      -276.9120
  21   1.0000     -10.176160      -276.9074
  22   1.0000      -0.870700       -23.6930
  23   1.0000      -0.860720       -23.4214
  24   1.0000      -0.813852       -22.1460
  25   1.0000      -0.795862       -21.6565
  26   1.0000      -0.786781       -21.4094
  27   1.0000      -0.769845       -20.9485
  28   1.0000      -0.760148       -20.6847
  29   1.0000      -0.748581       -20.3699
  30   1.0000      -0.732258       -19.9258
  31   1.0000      -0.712421       -19.3860
  32   1.0000      -0.698271       -19.0009
  33   1.0000      -0.652728       -17.7616
  34   1.0000      -0.630624       -17.1602
  35   1.0000      -0.617618       -16.8062
  36   1.0000      -0.606745       -16.5104
  37   1.0000      -0.605570       -16.4784
  38   1.0000      -0.582029       -15.8378
  39   1.0000      -0.577100       -15.7037
  40   1.0000      -0.563194       -15.3253
  41   1.0000      -0.534626       -14.5479
  42   1.0000      -0.506515       -13.7830
  43   1.0000      -0.477797       -13.0015
  44   1.0000      -0.471876       -12.8404
  45   1.0000      -0.471408       -12.8277
  46   1.0000      -0.470325       -12.7982
  47   1.0000      -0.455211       -12.3869
  48   1.0000      -0.441084       -12.0025
  49   1.0000      -0.434781       -11.8310
  50   1.0000      -0.427546       -11.6341
  51   1.0000      -0.423905       -11.5350
  52   1.0000      -0.422489       -11.4965
  53   1.0000      -0.421920       -11.4810
  54   1.0000      -0.417058       -11.3487
  55   1.0000      -0.413689       -11.2570
  56   1.0000      -0.411814       -11.2060
  57   1.0000      -0.381149       -10.3716
  58   1.0000      -0.378462       -10.2985
  59   1.0000      -0.372644       -10.1401
  60   1.0000      -0.366054        -9.9608
  61   1.0000      -0.364276        -9.9124
  62   1.0000      -0.357994        -9.7415
  63   1.0000      -0.357001        -9.7145
  64   1.0000      -0.348155        -9.4738
  65   1.0000      -0.341178        -9.2839
  66   1.0000      -0.334041        -9.0897
  67   1.0000      -0.331758        -9.0276
  68   1.0000      -0.327314        -8.9067
  69   1.0000      -0.324794        -8.8381
  70   1.0000      -0.322880        -8.7860
  71   1.0000      -0.322856        -8.7854
  72   1.0000      -0.312214        -8.4958
  73   1.0000      -0.268056        -7.2942
  74   1.0000      -0.265664        -7.2291
  75   1.0000      -0.256395        -6.9769
  76   1.0000      -0.242174        -6.5899
  77   1.0000      -0.235957        -6.4207
  78   1.0000      -0.209128        -5.6907
  79   0.0000      -0.049495        -1.3468
  80   0.0000      -0.008127        -0.2211
  81   0.0000      -0.003229        -0.0879
  82   0.0000       0.006370         0.1733
  83   0.0000       0.048473         1.3190

                 SPIN DOWN ORBITALS
  NO   OCC          E(Eh)            E(eV)
   0   1.0000     -10.213921      -277.9349
   1   1.0000     -10.207590      -277.7626
   2   1.0000     -10.202191      -277.6157
   3   1.0000     -10.199811      -277.5510
   4   1.0000     -10.194661      -277.4108
   5   1.0000     -10.194508      -277.4067
   6   1.0000     -10.193644      -277.3832
   7   1.0000     -10.193253      -277.3725
   8   1.0000     -10.193155      -277.3699
   9   1.0000     -10.192982      -277.3651
  10   1.0000     -10.191674      -277.3295
  11   1.0000     -10.189587      -277.2728
  12   1.0000     -10.188050      -277.2309
  13   1.0000     -10.186565      -277.1905
  14   1.0000     -10.186024      -277.1758
  15   1.0000     -10.183967      -277.1198
  16   1.0000     -10.182767      -277.0872
  17   1.0000     -10.182599      -277.0826
  18   1.0000     -10.182411      -277.0775
  19   1.0000     -10.182238      -277.0728
  20   1.0000     -10.176324      -276.9119
  21   1.0000     -10.176160      -276.9074
  22   1.0000      -0.865007       -23.5380
  23   1.0000      -0.860469       -23.4146
  24   1.0000      -0.812110       -22.0986
  25   1.0000      -0.795657       -21.6509
  26   1.0000      -0.784506       -21.3475
  27   1.0000      -0.768027       -20.8991
  28   1.0000      -0.756235       -20.5782
  29   1.0000      -0.748644       -20.3716
  30   1.0000      -0.730396       -19.8751
  31   1.0000      -0.709977       -19.3194
  32   1.0000      -0.696247       -18.9459
  33   1.0000      -0.651574       -17.7302
  34   1.0000      -0.628750       -17.1092
  35   1.0000      -0.615233       -16.7413
  36   1.0000      -0.606725       -16.5098
  37   1.0000      -0.600884       -16.3509
  38   1.0000      -0.580520       -15.7967
  39   1.0000      -0.572015       -15.5653
  40   1.0000      -0.560981       -15.2651
  41   1.0000      -0.533892       -14.5279
  42   1.0000      -0.505035       -13.7427
  43   1.0000      -0.477402       -12.9908
  44   1.0000      -0.471321       -12.8253
  45   1.0000      -0.470242       -12.7959
  46   1.0000      -0.466775       -12.7016
  47   1.0000      -0.455141       -12.3850
  48   1.0000      -0.434713       -11.8292
  49   1.0000      -0.433425       -11.7941
  50   1.0000      -0.425352       -11.5744
  51   1.0000      -0.422463       -11.4958
  52   1.0000      -0.422028       -11.4840
  53   1.0000      -0.421896       -11.4804
  54   1.0000      -0.416946       -11.3457
  55   1.0000      -0.411818       -11.2061
  56   1.0000      -0.406902       -11.0724
  57   1.0000      -0.381218       -10.3735
  58   1.0000      -0.374399       -10.1879
  59   1.0000      -0.371687       -10.1141
  60   1.0000      -0.365021        -9.9327
  61   1.0000      -0.361406        -9.8343
  62   1.0000      -0.357600        -9.7308
  63   1.0000      -0.356818        -9.7095
  64   1.0000      -0.348163        -9.4740
  65   1.0000      -0.340713        -9.2713
  66   1.0000      -0.333387        -9.0719
  67   1.0000      -0.330448        -8.9919
  68   1.0000      -0.326770        -8.8919
  69   1.0000      -0.324577        -8.8322
  70   1.0000      -0.322788        -8.7835
  71   1.0000      -0.321108        -8.7378
  72   1.0000      -0.310630        -8.4527
  73   1.0000      -0.265340        -7.2203
  74   1.0000      -0.265130        -7.2146
  75   1.0000      -0.256574        -6.9817
  76   1.0000      -0.242245        -6.5918
  77   1.0000      -0.205475        -5.5913
  78   0.0000      -0.077384        -2.1057
  79   0.0000      -0.045336        -1.2337
  80   0.0000      -0.008283        -0.2254
  81   0.0000      -0.003590        -0.0977
  82   0.0000       0.011123         0.3027

MULLIKEN ATOMIC CHARGES AND SPIN POPULATIONS
--------------------------------------------
   0 C :    0.233135    0.013811
   1 C :   -0.135355    0.999713
   2 C :   -0.015278   -0.067593
   3 C :    0.024256    0.058189
   4 C :   -0.165331   -0.040294
   5 C :   -0.100279    0.065116
   6 C :    0.058265   -0.066311
   7 H :   -0.050022    0.013231
   8 H :   -0.021562    0.018930
   9 C :    0.047160    0.015956
  10 H :    0.025925    0.000727
  11 H :    0.026023    0.000708
  12 C :   -0.042540    0.000563
  13 H :    0.016595   -0.000010
  14 H :    0.016630   -0.000009
  15 C :   -0.026382    0.000311
  16 H :    0.006418   -0.000031
  17 H :    0.006428   -0.000031
  18 C :    0.000221    0.000223
  19 H :    0.017393   -0.000015
  20 H :    0.017388   -0.000015
  21 C :    0.039481    0.005797
  22 H :    0.032862    0.002215
  23 H :    0.032880    0.002211
  24 C :   -0.035193    0.000340
  25 H :    0.015230    0.000094
  26 H :    0.015220    0.000095
  27 C :   -0.026180    0.000085
  28 H :    0.005893    0.000060
  29 H :    0.005892    0.000060
  30 C :    0.002967    0.000007
  31 H :    0.017222    0.000003
  32 H :    0.017229    0.000003
  33 C :    0.155781   -0.019568
  34 H :    0.013152    0.000030
  35 H :    0.012944   -0.000011
  36 C :   -0.246608    0.004452
  37 C :    0.029542   -0.004634
  38 C :    0.040060    0.002404
  39 C :    0.031925   -0.004982
  40 C :    0.039776    0.002400
  41 C :    0.027018   -0.004634
  42 H :   -0.028158    0.000226
  43 H :   -0.028048   -0.000094
  44 H :   -0.041312    0.000179
  45 H :   -0.040711    0.000187
  46 H :   -0.027952   -0.000093
Sum of atomic charges         :   -0.0000000

LOEWDIN ATOMIC CHARGES AND SPIN POPULATIONS
-------------------------------------------
   0 C :   -0.016954    0.007068
   1 C :    0.024120    0.855146
   2 C :   -0.054407    0.022946
   3 C :    0.001929    0.047185
   4 C :   -0.060596   -0.025245
   5 C :    0.002133    0.048938
   6 C :   -0.057989    0.019104
   7 H :    0.028594    0.008230
   8 H :    0.032160    0.012901
   9 C :   -0.032448    0.011904
  10 H :    0.036726    0.000309
  11 H :    0.036759    0.000291
  12 C :   -0.044299    0.000474
  13 H :    0.024634    0.000039
  14 H :    0.024626    0.000039
  15 C :   -0.047317    0.000233
  16 H :    0.024031   -0.000012
  17 H :    0.024035   -0.000012
  18 C :   -0.067532    0.000161
  19 H :    0.025300   -0.000003
  20 H :    0.025304   -0.000003
  21 C :   -0.035604    0.005962
  22 H :    0.039156    0.001829
  23 H :    0.039170    0.001827
  24 C :   -0.043712    0.000494
  25 H :    0.024066    0.000077
  26 H :    0.024068    0.000077
  27 C :   -0.047190    0.000230
  28 H :    0.024039    0.000051
  29 H :    0.024038    0.000051
  30 C :   -0.067659   -0.000004
  31 H :    0.025213    0.000003
  32 H :    0.025212    0.000003
  33 C :   -0.028350   -0.014118
  34 H :    0.027628    0.000029
  35 H :    0.027562   -0.000007
  36 C :   -0.052734    0.002021
  37 C :   -0.002763   -0.003595
  38 C :   -0.024303    0.001421
  39 C :   -0.023196   -0.003857
  40 C :   -0.024485    0.001417
  41 C :   -0.003751   -0.003590
  42 H :    0.027725   -0.000016
  43 H :    0.028949    0.000007
  44 H :    0.029624   -0.000007
  45 H :    0.029463   -0.000003
  46 H :    0.029026    0.000007

  Mayer bond orders larger than 0.100000
B(  0-C ,  4-C ) :   0.9041 B(  0-C , 33-C ) :   1.7837 B(  0-C , 36-C ) :  -0.1630
B(  1-C ,  2-C ) :   1.3941 B(  1-C ,  6-C ) :   1.4447 B(  2-C ,  3-C ) :   1.4328
B(  2-C ,  9-C ) :   1.0449 B(  3-C ,  4-C ) :   1.4173 B(  3-C ,  7-H ) :   0.9221
B(  4-C ,  5-C ) :   1.4136 B(  4-C , 33-C ) :  -0.1016 B(  5-C ,  6-C ) :   1.4550
B(  5-C , 21-C ) :   1.0884 B(  6-C ,  8-H ) :   0.9099 B(  9-C , 10-H ) :   0.9171
B(  9-C , 11-H ) :   0.9170 B(  9-C , 12-C ) :   1.1024 B( 12-C , 13-H ) :   0.9310
B( 12-C , 14-H ) :   0.9309 B( 12-C , 15-C ) :   1.0754 B( 15-C , 16-H ) :   0.9416
B( 15-C , 17-H ) :   0.9416 B( 15-C , 18-C ) :   1.1056 B( 18-C , 19-H ) :   0.9666
B( 18-C , 20-H ) :   0.9666 B( 18-C , 34-H ) :   0.9622 B( 21-C , 22-H ) :   0.8984
B( 21-C , 23-H ) :   0.8984 B( 21-C , 24-C ) :   1.1010 B( 24-C , 25-H ) :   0.9298
B( 24-C , 26-H ) :   0.9298 B( 24-C , 27-C ) :   1.0757 B( 27-C , 28-H ) :   0.9412
B( 27-C , 29-H ) :   0.9412 B( 27-C , 30-C ) :   1.1061 B( 30-C , 31-H ) :   0.9662
B( 30-C , 32-H ) :   0.9662 B( 30-C , 35-H ) :   0.9617 B( 33-C , 36-C ) :   0.9229
B( 36-C , 37-C ) :   1.4427 B( 36-C , 41-C ) :   1.4397 B( 37-C , 38-C ) :   1.4700
B( 37-C , 44-H ) :   0.9398 B( 38-C , 39-C ) :   1.4449 B( 38-C , 46-H ) :   0.9377
B( 39-C , 40-C ) :   1.4442 B( 39-C , 42-H ) :   0.9431 B( 40-C , 41-C ) :   1.4702
B( 40-C , 43-H ) :   0.9378 B( 41-C , 45-H ) :   0.9401

FINAL SINGLE POINT ENERGY      -852.751667072563

DIPOLE MOMENT
-------------
                                X             Y             Z
Electronic contribution:     15.81974      -0.23789       0.01391
Nuclear contribution   :    -15.61999       0.23141      -0.01374
                        -----------------------------------------
Total Dipole Moment    :      0.19975      -0.00649       0.00017
                        -----------------------------------------
Magnitude (a.u.)       :      0.19986
Magnitude (Debye)      :      0.50800

Rotational constants in cm-1:     0.007051     0.004917     0.002910
Rotational constants in MHz :   211.388096   147.419085    87.227783

CHEMICAL SHIELDING SUMMARY (ppm)  --  Orbital contribution
----------------------------------------------------------

  Nucleus  Element    Isotropic     Anisotropy
  -------  -------  ------------   ------------
      7       H           24.264         12.511
      8       H           24.330          8.127
     10       H           28.607          6.240
     11       H           28.607          6.237
     13       H           29.785          4.638
     14       H           29.783          4.643
     16       H           29.921          6.779
     17       H           29.921          6.783
     19       H           30.302          7.667
     20       H           30.302          7.664
     22       H           28.484          5.955
     23       H           28.484          5.945
     25       H           29.777          4.914
     26       H           29.778          4.912
     28       H           29.833          6.182
     29       H           29.832          6.182
     31       H           30.295          8.044
     32       H           30.295          8.045
     34       H           30.104         10.200
     35       H           30.080         10.161
     42       H           24.276          4.414
     43       H           24.220          5.426
     44       H           24.041          7.675
     45       H           24.025          7.737
     46       H           24.211          5.157

                             ****ORCA TERMINATED NORMALLY****
TOTAL RUN TIME: 0 days 1 hours 6 minutes 17 seconds 94 msec
