                         Program Version 5.0.4 -  RELEASE  -
|  1> ! B3LYP cc-pVDZ AUTOAUX
|  2> %pal nprocs 16 end
|  3> *XYZFile 0 2 opt.xyz
|  4> %EPRNMR
|  5>         GTENSOR   TRUE
|  6>         NUCLEI    = ALL H {SHIFT, AISO, ADIP, AORB}
|  7>         ORI       GIAO
|  8> END
|  9>
| 10>                          ****END OF INPUT****

CARTESIAN COORDINATES (ANGSTROEM)
---------------------------------
  C      2.831806   -0.006236   -0.008272
  C     -1.314139   -0.014773   -0.012929
  C     -0.703841   -1.259958   -0.014279
  C      0.699293   -1.203568   -0.012429
  C      1.402358    0.023007   -0.009542
  C      0.708612    1.263431   -0.008102
  C     -0.699666    1.217589   -0.009942
  H      1.283513   -2.125515   -0.013363
  H     -1.285093    2.138713   -0.009038
  C     -1.509688   -2.548043   -0.017242
  H     -2.182378   -2.530206   -0.894243
  H     -2.180594   -2.535322    0.861245
  C     -0.708611   -3.852555   -0.021718
  H     -0.045377   -3.880501   -0.905977
  H     -0.045441   -3.886600    0.862377
  C     -1.603186   -5.097748   -0.025923
  H     -2.269586   -5.070311    0.856270
  H     -2.268554   -5.065066   -0.908715
  C     -0.811642   -6.407882   -0.029365
  H     -0.163127   -6.486668    0.860305
  H     -0.161649   -6.481086   -0.918435
  C      1.483960    2.566701   -0.004836
  H      2.159953    2.562804    0.870276
  H      2.160515    2.566853   -0.879537
  C      0.662999    3.858831   -0.002137
  H      0.000591    3.884733   -0.887173
  H     -0.000881    3.880108    0.881917
  C      1.540854    5.116159    0.001806
  H      2.206133    5.092323    0.884894
  H      2.207958    5.096581   -0.880007
  C      0.732381    6.415841    0.004122
  H      0.081081    6.481192    0.892854
  H      0.083265    6.485731   -0.885860
  C      4.053310   -0.041189   -0.009378
  H     -1.480462   -7.283854   -0.032687
  H      1.389551    7.300598    0.007195
  C      5.481187   -0.085650   -0.008586
  C      6.162322   -1.322563   -0.012255
  C      7.556386   -1.361278   -0.011394
  C      8.297343   -0.174069   -0.006934
  C      7.632552    1.057518   -0.003328
  C      6.238850    1.105969   -0.004137
  H      9.389310   -0.208771   -0.006270
  H      8.204901    1.988374    0.000175
  H      5.582883   -2.247731   -0.015759
  H      5.718665    2.065740   -0.001296
  H      8.069533   -2.326054   -0.014261

 Total Charge           Charge          ....    0
 Multiplicity           Mult            ....    2
 Number of Electrons    NEL             ....  157
 Basis Dimension        Dim             ....  433

ORBITAL ENERGIES
----------------
                 SPIN UP ORBITALS
  NO   OCC          E(Eh)            E(eV)
   0   1.0000     -10.213961      -277.9360
   1   1.0000     -10.206986      -277.7462
   2   1.0000     -10.203539      -277.6524
   3   1.0000     -10.203437      -277.6496
   4   1.0000     -10.199747      -277.5492
   5   1.0000     -10.194591      -277.4089
   6   1.0000     -10.194437      -277.4047
   7   1.0000     -10.194337      -277.4020
   8   1.0000     -10.193617      -277.3824
   9   1.0000     -10.193274      -277.3731
  10   1.0000     -10.192968      -277.3648
  11   1.0000     -10.191439      -277.3232
  12   1.0000     -10.190049      -277.2853
  13   1.0000     -10.186680      -277.1936
  14   1.0000     -10.186074      -277.1772
  15   1.0000     -10.183835      -277.1162
  16   1.0000     -10.182767      -277.0872
  17   1.0000     -10.182599      -277.0826
  18   1.0000     -10.182414      -277.0776
  19   1.0000     -10.182243      -277.0729
  20   1.0000     -10.176320      -276.9117
  21   1.0000     -10.176156      -276.9073
  22   1.0000      -0.870697       -23.6929
  23   1.0000      -0.860721       -23.4214
  24   1.0000      -0.813855       -22.1461
  25   1.0000      -0.795872       -21.6568
  26   1.0000      -0.786781       -21.4094
  27   1.0000      -0.769851       -20.9487
  28   1.0000      -0.760150       -20.6847
  29   1.0000      -0.748581       -20.3699
  30   1.0000      -0.732265       -19.9259
  31   1.0000      -0.712424       -19.3860
  32   1.0000      -0.698271       -19.0009
  33   1.0000      -0.652727       -17.7616
  34   1.0000      -0.630625       -17.1602
  35   1.0000      -0.617617       -16.8062
  36   1.0000      -0.606743       -16.5103
  37   1.0000      -0.605570       -16.4784
  38   1.0000      -0.582022       -15.8376
  39   1.0000      -0.577092       -15.7035
  40   1.0000      -0.563179       -15.3249
  41   1.0000      -0.534623       -14.5478
  42   1.0000      -0.506516       -13.7830
  43   1.0000      -0.477795       -13.0015
  44   1.0000      -0.471877       -12.8404
  45   1.0000      -0.471415       -12.8279
  46   1.0000      -0.470330       -12.7983
  47   1.0000      -0.455211       -12.3869
  48   1.0000      -0.441084       -12.0025
  49   1.0000      -0.434779       -11.8309
  50   1.0000      -0.427545       -11.6341
  51   1.0000      -0.423908       -11.5351
  52   1.0000      -0.422490       -11.4965
  53   1.0000      -0.421915       -11.4809
  54   1.0000      -0.417058       -11.3487
  55   1.0000      -0.413691       -11.2571
  56   1.0000      -0.411820       -11.2062
  57   1.0000      -0.381144       -10.3715
  58   1.0000      -0.378477       -10.2989
  59   1.0000      -0.372639       -10.1400
  60   1.0000      -0.366054        -9.9608
  61   1.0000      -0.364277        -9.9125
  62   1.0000      -0.357997        -9.7416
  63   1.0000      -0.356994        -9.7143
  64   1.0000      -0.348147        -9.4736
  65   1.0000      -0.341172        -9.2838
  66   1.0000      -0.334039        -9.0897
  67   1.0000      -0.331750        -9.0274
  68   1.0000      -0.327320        -8.9068
  69   1.0000      -0.324783        -8.8378
  70   1.0000      -0.322866        -8.7856
  71   1.0000      -0.322863        -8.7855
  72   1.0000      -0.312213        -8.4957
  73   1.0000      -0.268059        -7.2943
  74   1.0000      -0.265651        -7.2287
  75   1.0000      -0.256395        -6.9769
  76   1.0000      -0.242169        -6.5898
  77   1.0000      -0.235975        -6.4212
  78   1.0000      -0.209127        -5.6906
  79   0.0000      -0.049492        -1.3468
  80   0.0000      -0.008122        -0.2210
  81   0.0000      -0.003224        -0.0877
  82   0.0000       0.006371         0.1734
  83   0.0000       0.048480         1.3192

                 SPIN DOWN ORBITALS
  NO   OCC          E(Eh)            E(eV)
   0   1.0000     -10.213898      -277.9343
   1   1.0000     -10.207578      -277.7623
   2   1.0000     -10.202161      -277.6149
   3   1.0000     -10.199828      -277.5514
   4   1.0000     -10.194653      -277.4106
   5   1.0000     -10.194499      -277.4064
   6   1.0000     -10.193642      -277.3831
   7   1.0000     -10.193250      -277.3724
   8   1.0000     -10.193125      -277.3690
   9   1.0000     -10.192980      -277.3651
  10   1.0000     -10.191687      -277.3299
  11   1.0000     -10.189597      -277.2730
  12   1.0000     -10.188083      -277.2318
  13   1.0000     -10.186547      -277.1900
  14   1.0000     -10.186019      -277.1757
  15   1.0000     -10.183952      -277.1194
  16   1.0000     -10.182762      -277.0870
  17   1.0000     -10.182594      -277.0825
  18   1.0000     -10.182406      -277.0774
  19   1.0000     -10.182235      -277.0727
  20   1.0000     -10.176315      -276.9116
  21   1.0000     -10.176156      -276.9073
  22   1.0000      -0.865002       -23.5379
  23   1.0000      -0.860469       -23.4145
  24   1.0000      -0.812115       -22.0988
  25   1.0000      -0.795666       -21.6512
  26   1.0000      -0.784504       -21.3475
  27   1.0000      -0.768034       -20.8993
  28   1.0000      -0.756236       -20.5782
  29   1.0000      -0.748643       -20.3716
  30   1.0000      -0.730403       -19.8753
  31   1.0000      -0.709980       -19.3195
  32   1.0000      -0.696246       -18.9458
  33   1.0000      -0.651573       -17.7302
  34   1.0000      -0.628749       -17.1091
  35   1.0000      -0.615231       -16.7413
  36   1.0000      -0.606721       -16.5097
  37   1.0000      -0.600886       -16.3509
  38   1.0000      -0.580512       -15.7965
  39   1.0000      -0.572011       -15.5652
  40   1.0000      -0.560966       -15.2647
  41   1.0000      -0.533889       -14.5279
  42   1.0000      -0.505036       -13.7427
  43   1.0000      -0.477398       -12.9907
  44   1.0000      -0.471329       -12.8255
  45   1.0000      -0.470246       -12.7961
  46   1.0000      -0.466778       -12.7017
  47   1.0000      -0.455140       -12.3850
  48   1.0000      -0.434710       -11.8291
  49   1.0000      -0.433430       -11.7942
  50   1.0000      -0.425351       -11.5744
  51   1.0000      -0.422468       -11.4959
  52   1.0000      -0.422029       -11.4840
  53   1.0000      -0.421891       -11.4802
  54   1.0000      -0.416946       -11.3457
  55   1.0000      -0.411825       -11.2063
  56   1.0000      -0.406901       -11.0723
  57   1.0000      -0.381213       -10.3733
  58   1.0000      -0.374413       -10.1883
  59   1.0000      -0.371681       -10.1140
  60   1.0000      -0.365022        -9.9328
  61   1.0000      -0.361408        -9.8344
  62   1.0000      -0.357600        -9.7308
  63   1.0000      -0.356812        -9.7093
  64   1.0000      -0.348155        -9.4738
  65   1.0000      -0.340707        -9.2711
  66   1.0000      -0.333382        -9.0718
  67   1.0000      -0.330438        -8.9917
  68   1.0000      -0.326777        -8.8920
  69   1.0000      -0.324566        -8.8319
  70   1.0000      -0.322773        -8.7831
  71   1.0000      -0.321116        -8.7380
  72   1.0000      -0.310628        -8.4526
  73   1.0000      -0.265336        -7.2202
  74   1.0000      -0.265125        -7.2144
  75   1.0000      -0.256572        -6.9817
  76   1.0000      -0.242246        -6.5919
  77   1.0000      -0.205469        -5.5911
  78   0.0000      -0.077402        -2.1062
  79   0.0000      -0.045331        -1.2335
  80   0.0000      -0.008276        -0.2252
  81   0.0000      -0.003591        -0.0977
  82   0.0000       0.011125         0.3027

MULLIKEN ATOMIC CHARGES AND SPIN POPULATIONS
--------------------------------------------
   0 C :    0.233137    0.013329
   1 C :   -0.135314    0.999766
   2 C :   -0.015342   -0.067526
   3 C :    0.024307    0.057987
   4 C :   -0.165294   -0.040100
   5 C :   -0.100385    0.064935
   6 C :    0.058301   -0.066250
   7 H :   -0.050020    0.013238
   8 H :   -0.021572    0.018922
   9 C :    0.047143    0.015940
  10 H :    0.025919    0.000732
  11 H :    0.026036    0.000710
  12 C :   -0.042523    0.000570
  13 H :    0.016580   -0.000010
  14 H :    0.016626   -0.000009
  15 C :   -0.026348    0.000310
  16 H :    0.006413   -0.000031
  17 H :    0.006425   -0.000031
  18 C :    0.000218    0.000223
  19 H :    0.017385   -0.000015
  20 H :    0.017381   -0.000015
  21 C :    0.039514    0.005842
  22 H :    0.032869    0.002206
  23 H :    0.032888    0.002202
  24 C :   -0.035246    0.000333
  25 H :    0.015232    0.000095
  26 H :    0.015218    0.000096
  27 C :   -0.026112    0.000086
  28 H :    0.005889    0.000060
  29 H :    0.005893    0.000060
  30 C :    0.002945    0.000007
  31 H :    0.017214    0.000003
  32 H :    0.017221    0.000003
  33 C :    0.155802   -0.019137
  34 H :    0.013146    0.000030
  35 H :    0.012934   -0.000011
  36 C :   -0.246648    0.004240
  37 C :    0.029574   -0.004422
  38 C :    0.040043    0.002221
  39 C :    0.031933   -0.004773
  40 C :    0.039803    0.002217
  41 C :    0.027006   -0.004421
  42 H :   -0.028160    0.000211
  43 H :   -0.028048   -0.000081
  44 H :   -0.041318    0.000165
  45 H :   -0.040713    0.000173
  46 H :   -0.027954   -0.000081
Sum of atomic charges         :   -0.0000000

LOEWDIN ATOMIC CHARGES AND SPIN POPULATIONS
-------------------------------------------
   0 C :   -0.016954    0.006812
   1 C :    0.024104    0.855179
   2 C :   -0.054410    0.022985
   3 C :    0.001940    0.047051
   4 C :   -0.060586   -0.025184
   5 C :    0.002176    0.048835
   6 C :   -0.057993    0.019142
   7 H :    0.028592    0.008229
   8 H :    0.032158    0.012897
   9 C :   -0.032458    0.011905
  10 H :    0.036725    0.000313
  11 H :    0.036763    0.000293
  12 C :   -0.044314    0.000478
  13 H :    0.024639    0.000039
  14 H :    0.024630    0.000039
  15 C :   -0.047328    0.000233
  16 H :    0.024038   -0.000012
  17 H :    0.024042   -0.000012
  18 C :   -0.067537    0.000162
  19 H :    0.025300   -0.000003
  20 H :    0.025304   -0.000003
  21 C :   -0.035599    0.005977
  22 H :    0.039147    0.001824
  23 H :    0.039166    0.001821
  24 C :   -0.043741    0.000492
  25 H :    0.024072    0.000077
  26 H :    0.024074    0.000077
  27 C :   -0.047203    0.000230
  28 H :    0.024045    0.000051
  29 H :    0.024045    0.000050
  30 C :   -0.067664   -0.000004
  31 H :    0.025213    0.000003
  32 H :    0.025212    0.000003
  33 C :   -0.028348   -0.013881
  34 H :    0.027631    0.000029
  35 H :    0.027564   -0.000007
  36 C :   -0.052727    0.001903
  37 C :   -0.002775   -0.003451
  38 C :   -0.024306    0.001304
  39 C :   -0.023197   -0.003716
  40 C :   -0.024482    0.001301
  41 C :   -0.003751   -0.003446
  42 H :    0.027726   -0.000019
  43 H :    0.028949    0.000009
  44 H :    0.029625   -0.000010
  45 H :    0.029464   -0.000006
  46 H :    0.029027    0.000009

  Mayer bond orders larger than 0.100000
B(  0-C ,  4-C ) :   0.9041 B(  0-C , 33-C ) :   1.7837 B(  0-C , 36-C ) :  -0.1630
B(  1-C ,  2-C ) :   1.3940 B(  1-C ,  6-C ) :   1.4446 B(  2-C ,  3-C ) :   1.4328
B(  2-C ,  9-C ) :   1.0449 B(  3-C ,  4-C ) :   1.4171 B(  3-C ,  7-H ) :   0.9221
B(  4-C ,  5-C ) :   1.4136 B(  4-C , 33-C ) :  -0.1016 B(  5-C ,  6-C ) :   1.4550
B(  5-C , 21-C ) :   1.0884 B(  6-C ,  8-H ) :   0.9099 B(  9-C , 10-H ) :   0.9171
B(  9-C , 11-H ) :   0.9170 B(  9-C , 12-C ) :   1.1024 B( 12-C , 13-H ) :   0.9310
B( 12-C , 14-H ) :   0.9309 B( 12-C , 15-C ) :   1.0754 B( 15-C , 16-H ) :   0.9415
B( 15-C , 17-H ) :   0.9415 B( 15-C , 18-C ) :   1.1056 B( 18-C , 19-H ) :   0.9666
B( 18-C , 20-H ) :   0.9666 B( 18-C , 34-H ) :   0.9622 B( 21-C , 22-H ) :   0.8984
B( 21-C , 23-H ) :   0.8984 B( 21-C , 24-C ) :   1.1010 B( 24-C , 25-H ) :   0.9298
B( 24-C , 26-H ) :   0.9298 B( 24-C , 27-C ) :   1.0758 B( 27-C , 28-H ) :   0.9412
B( 27-C , 29-H ) :   0.9412 B( 27-C , 30-C ) :   1.1062 B( 30-C , 31-H ) :   0.9662
B( 30-C , 32-H ) :   0.9662 B( 30-C , 35-H ) :   0.9617 B( 33-C , 36-C ) :   0.9229
B( 36-C , 37-C ) :   1.4426 B( 36-C , 41-C ) :   1.4398 B( 37-C , 38-C ) :   1.4700
B( 37-C , 44-H ) :   0.9398 B( 38-C , 39-C ) :   1.4450 B( 38-C , 46-H ) :   0.9377
B( 39-C , 40-C ) :   1.4442 B( 39-C , 42-H ) :   0.9431 B( 40-C , 41-C ) :   1.4702
B( 40-C , 43-H ) :   0.9378 B( 41-C , 45-H ) :   0.9401

FINAL SINGLE POINT ENERGY      -852.751665109164

DIPOLE MOMENT
-------------
                                X             Y             Z
Electronic contribution:     15.82434      -0.23640       0.01506
Nuclear contribution   :    -15.62451       0.23028      -0.01489
                        -----------------------------------------
Total Dipole Moment    :      0.19983      -0.00612       0.00017
                        -----------------------------------------
Magnitude (a.u.)       :      0.19993
Magnitude (Debye)      :      0.50818

Rotational constants in cm-1:     0.007056     0.004915     0.002910
Rotational constants in MHz :   211.539302   147.336779    87.224688

CHEMICAL SHIELDING SUMMARY (ppm)  --  Orbital contribution
----------------------------------------------------------

  Nucleus  Element    Isotropic     Anisotropy
  -------  -------  ------------   ------------
      7       H           24.266         12.504
      8       H           24.329          8.129
     10       H           28.606          6.241
     11       H           28.605          6.236
     13       H           29.785          4.637
     14       H           29.782          4.642
     16       H           29.920          6.780
     17       H           29.920          6.785
     19       H           30.303          7.667
     20       H           30.303          7.665
     22       H           28.482          5.958
     23       H           28.482          5.946
     25       H           29.776          4.913
     26       H           29.778          4.910
     28       H           29.832          6.185
     29       H           29.832          6.184
     31       H           30.295          8.044
     32       H           30.295          8.045
     34       H           30.104         10.200
     35       H           30.080         10.162
     42       H           24.277          4.413
     43       H           24.218          5.431
     44       H           24.045          7.669
     45       H           24.021          7.742
     46       H           24.215          5.151

                             ****ORCA TERMINATED NORMALLY****
TOTAL RUN TIME: 0 days 1 hours 6 minutes 34 seconds 207 msec
