                         Program Version 5.0.4 -  RELEASE  -
|  1> ! B3LYP cc-pVDZ AUTOAUX
|  2> %pal nprocs 16 end
|  3> *XYZFile 0 2 opt.xyz
|  4> %EPRNMR
|  5>         GTENSOR   TRUE
|  6>         NUCLEI    = ALL H {SHIFT, AISO, ADIP, AORB}
|  7>         ORI       GIAO
|  8> END
|  9>
| 10>                          ****END OF INPUT****

CARTESIAN COORDINATES (ANGSTROEM)
---------------------------------
  C      2.831806   -0.006236   -0.008272
  C     -1.314139   -0.014773   -0.012929
  C     -0.703841   -1.259958   -0.014279
  C      0.699293   -1.203568   -0.012429
  C      1.402358    0.023007   -0.009542
  C      0.708612    1.263431   -0.008102
  C     -0.699666    1.217589   -0.009942
  H      1.283513   -2.125515   -0.013363
  H     -1.285093    2.138713   -0.009038
  C     -1.509688   -2.548043   -0.017242
  H     -2.182378   -2.530206   -0.894243
  H     -2.180594   -2.535322    0.861245
  C     -0.708611   -3.852555   -0.021718
  H     -0.045377   -3.880501   -0.905977
  H     -0.045441   -3.886600    0.862377
  C     -1.603186   -5.097748   -0.025923
  H     -2.269586   -5.070311    0.856270
  H     -2.268554   -5.065066   -0.908715
  C     -0.811642   -6.407882   -0.029365
  H     -0.163127   -6.486668    0.860305
  H     -0.161649   -6.481086   -0.918435
  C      1.483960    2.566701   -0.004836
  H      2.159953    2.562804    0.870276
  H      2.160515    2.566853   -0.879537
  C      0.662999    3.858831   -0.002137
  H      0.000591    3.884733   -0.887173
  H     -0.000881    3.880108    0.881917
  C      1.540854    5.116159    0.001806
  H      2.206133    5.092323    0.884894
  H      2.207958    5.096581   -0.880007
  C      0.732381    6.415841    0.004122
  H      0.081081    6.481192    0.892854
  H      0.083265    6.485731   -0.885860
  C      4.053310   -0.041189   -0.009378
  H     -1.480462   -7.283854   -0.032687
  H      1.389551    7.300598    0.007195
  C      5.481187   -0.085650   -0.008586
  C      6.162322   -1.322563   -0.012255
  C      7.556386   -1.361278   -0.011394
  C      8.297343   -0.174069   -0.006934
  C      7.632552    1.057518   -0.003328
  C      6.238850    1.105969   -0.004137
  H      9.389310   -0.208771   -0.006270
  H      8.204901    1.988374    0.000175
  H      5.582883   -2.247731   -0.015759
  H      5.718665    2.065740   -0.001296
  H      8.069533   -2.326054   -0.014261

 Total Charge           Charge          ....    0
 Multiplicity           Mult            ....    2
 Number of Electrons    NEL             ....  157
 Basis Dimension        Dim             ....  433

ORBITAL ENERGIES
----------------
                 SPIN UP ORBITALS
  NO   OCC          E(Eh)            E(eV)
   0   1.0000     -10.214010      -277.9373
   1   1.0000     -10.207010      -277.7469
   2   1.0000     -10.203604      -277.6542
   3   1.0000     -10.203369      -277.6478
   4   1.0000     -10.199712      -277.5483
   5   1.0000     -10.194597      -277.4091
   6   1.0000     -10.194447      -277.4050
   7   1.0000     -10.194387      -277.4034
   8   1.0000     -10.193613      -277.3823
   9   1.0000     -10.193273      -277.3731
  10   1.0000     -10.192962      -277.3646
  11   1.0000     -10.191419      -277.3226
  12   1.0000     -10.190032      -277.2849
  13   1.0000     -10.186719      -277.1947
  14   1.0000     -10.186074      -277.1772
  15   1.0000     -10.183871      -277.1172
  16   1.0000     -10.182768      -277.0872
  17   1.0000     -10.182599      -277.0826
  18   1.0000     -10.182420      -277.0777
  19   1.0000     -10.182246      -277.0730
  20   1.0000     -10.176330      -276.9120
  21   1.0000     -10.176162      -276.9074
  22   1.0000      -0.870701       -23.6930
  23   1.0000      -0.860732       -23.4217
  24   1.0000      -0.813859       -22.1462
  25   1.0000      -0.795877       -21.6569
  26   1.0000      -0.786787       -21.4096
  27   1.0000      -0.769856       -20.9489
  28   1.0000      -0.760154       -20.6848
  29   1.0000      -0.748586       -20.3700
  30   1.0000      -0.732268       -19.9260
  31   1.0000      -0.712432       -19.3863
  32   1.0000      -0.698276       -19.0010
  33   1.0000      -0.652731       -17.7617
  34   1.0000      -0.630632       -17.1604
  35   1.0000      -0.617620       -16.8063
  36   1.0000      -0.606751       -16.5105
  37   1.0000      -0.605574       -16.4785
  38   1.0000      -0.582027       -15.8377
  39   1.0000      -0.577093       -15.7035
  40   1.0000      -0.563182       -15.3250
  41   1.0000      -0.534634       -14.5481
  42   1.0000      -0.506519       -13.7831
  43   1.0000      -0.477804       -13.0017
  44   1.0000      -0.471878       -12.8405
  45   1.0000      -0.471416       -12.8279
  46   1.0000      -0.470335       -12.7985
  47   1.0000      -0.455219       -12.3871
  48   1.0000      -0.441091       -12.0027
  49   1.0000      -0.434786       -11.8311
  50   1.0000      -0.427551       -11.6343
  51   1.0000      -0.423911       -11.5352
  52   1.0000      -0.422494       -11.4966
  53   1.0000      -0.421920       -11.4810
  54   1.0000      -0.417062       -11.3488
  55   1.0000      -0.413695       -11.2572
  56   1.0000      -0.411822       -11.2062
  57   1.0000      -0.381155       -10.3718
  58   1.0000      -0.378479       -10.2989
  59   1.0000      -0.372643       -10.1401
  60   1.0000      -0.366052        -9.9608
  61   1.0000      -0.364286        -9.9127
  62   1.0000      -0.358001        -9.7417
  63   1.0000      -0.356996        -9.7143
  64   1.0000      -0.348154        -9.4737
  65   1.0000      -0.341177        -9.2839
  66   1.0000      -0.334043        -9.0898
  67   1.0000      -0.331751        -9.0274
  68   1.0000      -0.327320        -8.9068
  69   1.0000      -0.324783        -8.8378
  70   1.0000      -0.322871        -8.7858
  71   1.0000      -0.322868        -8.7857
  72   1.0000      -0.312216        -8.4958
  73   1.0000      -0.268061        -7.2943
  74   1.0000      -0.265666        -7.2291
  75   1.0000      -0.256399        -6.9770
  76   1.0000      -0.242176        -6.5899
  77   1.0000      -0.235949        -6.4205
  78   1.0000      -0.209135        -5.6908
  79   0.0000      -0.049499        -1.3469
  80   0.0000      -0.008127        -0.2211
  81   0.0000      -0.003229        -0.0879
  82   0.0000       0.006368         0.1733
  83   0.0000       0.048467         1.3188

                 SPIN DOWN ORBITALS
  NO   OCC          E(Eh)            E(eV)
   0   1.0000     -10.213946      -277.9356
   1   1.0000     -10.207603      -277.7630
   2   1.0000     -10.202225      -277.6167
   3   1.0000     -10.199793      -277.5505
   4   1.0000     -10.194661      -277.4108
   5   1.0000     -10.194510      -277.4067
   6   1.0000     -10.193638      -277.3830
   7   1.0000     -10.193249      -277.3724
   8   1.0000     -10.193173      -277.3703
   9   1.0000     -10.192975      -277.3649
  10   1.0000     -10.191666      -277.3293
  11   1.0000     -10.189580      -277.2726
  12   1.0000     -10.188017      -277.2300
  13   1.0000     -10.186586      -277.1911
  14   1.0000     -10.186027      -277.1759
  15   1.0000     -10.183980      -277.1202
  16   1.0000     -10.182763      -277.0871
  17   1.0000     -10.182594      -277.0825
  18   1.0000     -10.182411      -277.0775
  19   1.0000     -10.182238      -277.0728
  20   1.0000     -10.176326      -276.9119
  21   1.0000     -10.176162      -276.9075
  22   1.0000      -0.865010       -23.5381
  23   1.0000      -0.860479       -23.4148
  24   1.0000      -0.812118       -22.0988
  25   1.0000      -0.795672       -21.6513
  26   1.0000      -0.784513       -21.3477
  27   1.0000      -0.768039       -20.8994
  28   1.0000      -0.756240       -20.5783
  29   1.0000      -0.748648       -20.3718
  30   1.0000      -0.730406       -19.8754
  31   1.0000      -0.709987       -19.3197
  32   1.0000      -0.696251       -18.9460
  33   1.0000      -0.651577       -17.7303
  34   1.0000      -0.628757       -17.1093
  35   1.0000      -0.615237       -16.7414
  36   1.0000      -0.606729       -16.5099
  37   1.0000      -0.600887       -16.3510
  38   1.0000      -0.580516       -15.7966
  39   1.0000      -0.572011       -15.5652
  40   1.0000      -0.560970       -15.2648
  41   1.0000      -0.533900       -14.5281
  42   1.0000      -0.505040       -13.7428
  43   1.0000      -0.477407       -12.9909
  44   1.0000      -0.471329       -12.8255
  45   1.0000      -0.470252       -12.7962
  46   1.0000      -0.466779       -12.7017
  47   1.0000      -0.455149       -12.3852
  48   1.0000      -0.434717       -11.8293
  49   1.0000      -0.433435       -11.7944
  50   1.0000      -0.425356       -11.5745
  51   1.0000      -0.422470       -11.4960
  52   1.0000      -0.422033       -11.4841
  53   1.0000      -0.421896       -11.4804
  54   1.0000      -0.416950       -11.3458
  55   1.0000      -0.411828       -11.2064
  56   1.0000      -0.406905       -11.0725
  57   1.0000      -0.381224       -10.3736
  58   1.0000      -0.374415       -10.1884
  59   1.0000      -0.371686       -10.1141
  60   1.0000      -0.365022        -9.9327
  61   1.0000      -0.361416        -9.8346
  62   1.0000      -0.357605        -9.7309
  63   1.0000      -0.356813        -9.7094
  64   1.0000      -0.348162        -9.4740
  65   1.0000      -0.340713        -9.2713
  66   1.0000      -0.333387        -9.0719
  67   1.0000      -0.330440        -8.9917
  68   1.0000      -0.326778        -8.8921
  69   1.0000      -0.324566        -8.8319
  70   1.0000      -0.322777        -8.7832
  71   1.0000      -0.321121        -8.7381
  72   1.0000      -0.310632        -8.4527
  73   1.0000      -0.265351        -7.2206
  74   1.0000      -0.265127        -7.2145
  75   1.0000      -0.256577        -6.9818
  76   1.0000      -0.242250        -6.5920
  77   1.0000      -0.205478        -5.5913
  78   0.0000      -0.077374        -2.1055
  79   0.0000      -0.045339        -1.2337
  80   0.0000      -0.008282        -0.2254
  81   0.0000      -0.003594        -0.0978
  82   0.0000       0.011121         0.3026

MULLIKEN ATOMIC CHARGES AND SPIN POPULATIONS
--------------------------------------------
   0 C :    0.233214    0.013478
   1 C :   -0.135291    0.999734
   2 C :   -0.015326   -0.067552
   3 C :    0.024291    0.058049
   4 C :   -0.165296   -0.040169
   5 C :   -0.100436    0.064995
   6 C :    0.058304   -0.066260
   7 H :   -0.050018    0.013232
   8 H :   -0.021572    0.018926
   9 C :    0.047153    0.015949
  10 H :    0.025920    0.000731
  11 H :    0.026033    0.000709
  12 C :   -0.042530    0.000569
  13 H :    0.016579   -0.000010
  14 H :    0.016627   -0.000009
  15 C :   -0.026348    0.000310
  16 H :    0.006414   -0.000031
  17 H :    0.006425   -0.000031
  18 C :    0.000214    0.000223
  19 H :    0.017386   -0.000015
  20 H :    0.017381   -0.000015
  21 C :    0.039496    0.005825
  22 H :    0.032875    0.002209
  23 H :    0.032893    0.002205
  24 C :   -0.035240    0.000336
  25 H :    0.015233    0.000095
  26 H :    0.015219    0.000096
  27 C :   -0.026110    0.000085
  28 H :    0.005887    0.000060
  29 H :    0.005893    0.000060
  30 C :    0.002944    0.000007
  31 H :    0.017214    0.000003
  32 H :    0.017221    0.000003
  33 C :    0.155758   -0.019271
  34 H :    0.013148    0.000030
  35 H :    0.012935   -0.000011
  36 C :   -0.246681    0.004302
  37 C :    0.029589   -0.004477
  38 C :    0.040050    0.002270
  39 C :    0.031941   -0.004826
  40 C :    0.039803    0.002266
  41 C :    0.026997   -0.004476
  42 H :   -0.028161    0.000216
  43 H :   -0.028048   -0.000085
  44 H :   -0.041314    0.000169
  45 H :   -0.040713    0.000178
  46 H :   -0.027956   -0.000085
Sum of atomic charges         :   -0.0000000

LOEWDIN ATOMIC CHARGES AND SPIN POPULATIONS
-------------------------------------------
   0 C :   -0.016915    0.006882
   1 C :    0.024130    0.855153
   2 C :   -0.054395    0.022972
   3 C :    0.001923    0.047089
   4 C :   -0.060588   -0.025205
   5 C :    0.002143    0.048868
   6 C :   -0.057987    0.019139
   7 H :    0.028594    0.008227
   8 H :    0.032158    0.012898
   9 C :   -0.032455    0.011908
  10 H :    0.036725    0.000313
  11 H :    0.036763    0.000292
  12 C :   -0.044317    0.000478
  13 H :    0.024638    0.000039
  14 H :    0.024630    0.000039
  15 C :   -0.047328    0.000233
  16 H :    0.024038   -0.000012
  17 H :    0.024042   -0.000012
  18 C :   -0.067540    0.000162
  19 H :    0.025301   -0.000003
  20 H :    0.025304   -0.000003
  21 C :   -0.035608    0.005972
  22 H :    0.039148    0.001825
  23 H :    0.039169    0.001823
  24 C :   -0.043738    0.000492
  25 H :    0.024073    0.000077
  26 H :    0.024075    0.000077
  27 C :   -0.047202    0.000230
  28 H :    0.024044    0.000051
  29 H :    0.024045    0.000050
  30 C :   -0.067664   -0.000004
  31 H :    0.025214    0.000003
  32 H :    0.025213    0.000003
  33 C :   -0.028382   -0.013946
  34 H :    0.027632    0.000029
  35 H :    0.027565   -0.000007
  36 C :   -0.052747    0.001934
  37 C :   -0.002773   -0.003487
  38 C :   -0.024299    0.001334
  39 C :   -0.023191   -0.003750
  40 C :   -0.024479    0.001331
  41 C :   -0.003752   -0.003482
  42 H :    0.027726   -0.000017
  43 H :    0.028949    0.000008
  44 H :    0.029628   -0.000008
  45 H :    0.029464   -0.000004
  46 H :    0.029026    0.000008

  Mayer bond orders larger than 0.100000
B(  0-C ,  4-C ) :   0.9041 B(  0-C , 33-C ) :   1.7837 B(  0-C , 36-C ) :  -0.1630
B(  1-C ,  2-C ) :   1.3941 B(  1-C ,  6-C ) :   1.4447 B(  2-C ,  3-C ) :   1.4328
B(  2-C ,  9-C ) :   1.0449 B(  3-C ,  4-C ) :   1.4171 B(  3-C ,  7-H ) :   0.9221
B(  4-C ,  5-C ) :   1.4136 B(  4-C , 33-C ) :  -0.1016 B(  5-C ,  6-C ) :   1.4550
B(  5-C , 21-C ) :   1.0884 B(  6-C ,  8-H ) :   0.9099 B(  9-C , 10-H ) :   0.9171
B(  9-C , 11-H ) :   0.9170 B(  9-C , 12-C ) :   1.1024 B( 12-C , 13-H ) :   0.9310
B( 12-C , 14-H ) :   0.9309 B( 12-C , 15-C ) :   1.0754 B( 15-C , 16-H ) :   0.9415
B( 15-C , 17-H ) :   0.9415 B( 15-C , 18-C ) :   1.1056 B( 18-C , 19-H ) :   0.9666
B( 18-C , 20-H ) :   0.9666 B( 18-C , 34-H ) :   0.9622 B( 21-C , 22-H ) :   0.8984
B( 21-C , 23-H ) :   0.8984 B( 21-C , 24-C ) :   1.1010 B( 24-C , 25-H ) :   0.9298
B( 24-C , 26-H ) :   0.9298 B( 24-C , 27-C ) :   1.0758 B( 27-C , 28-H ) :   0.9412
B( 27-C , 29-H ) :   0.9412 B( 27-C , 30-C ) :   1.1062 B( 30-C , 31-H ) :   0.9662
B( 30-C , 32-H ) :   0.9662 B( 30-C , 35-H ) :   0.9617 B( 33-C , 36-C ) :   0.9229
B( 36-C , 37-C ) :   1.4426 B( 36-C , 41-C ) :   1.4398 B( 37-C , 38-C ) :   1.4700
B( 37-C , 44-H ) :   0.9398 B( 38-C , 39-C ) :   1.4450 B( 38-C , 46-H ) :   0.9377
B( 39-C , 40-C ) :   1.4442 B( 39-C , 42-H ) :   0.9431 B( 40-C , 41-C ) :   1.4702
B( 40-C , 43-H ) :   0.9378 B( 41-C , 45-H ) :   0.9401

FINAL SINGLE POINT ENERGY      -852.751667522511

DIPOLE MOMENT
-------------
                                X             Y             Z
Electronic contribution:     15.82416      -0.23643       0.01506
Nuclear contribution   :    -15.62451       0.23028      -0.01489
                        -----------------------------------------
Total Dipole Moment    :      0.19965      -0.00615       0.00017
                        -----------------------------------------
Magnitude (a.u.)       :      0.19975
Magnitude (Debye)      :      0.50772

Rotational constants in cm-1:     0.007056     0.004915     0.002910
Rotational constants in MHz :   211.539302   147.336779    87.224688

CHEMICAL SHIELDING SUMMARY (ppm)  --  Orbital contribution
----------------------------------------------------------

  Nucleus  Element    Isotropic     Anisotropy
  -------  -------  ------------   ------------
      7       H           24.265         12.506
      8       H           24.330          8.127
     10       H           28.607          6.241
     11       H           28.607          6.237
     13       H           29.785          4.638
     14       H           29.783          4.643
     16       H           29.921          6.780
     17       H           29.921          6.784
     19       H           30.303          7.667
     20       H           30.303          7.665
     22       H           28.484          5.957
     23       H           28.484          5.944
     25       H           29.777          4.913
     26       H           29.778          4.910
     28       H           29.832          6.185
     29       H           29.831          6.184
     31       H           30.294          8.044
     32       H           30.294          8.045
     34       H           30.104         10.199
     35       H           30.080         10.162
     42       H           24.276          4.413
     43       H           24.219          5.429
     44       H           24.043          7.673
     45       H           24.025          7.740
     46       H           24.212          5.156

                             ****ORCA TERMINATED NORMALLY****
TOTAL RUN TIME: 0 days 1 hours 6 minutes 0 seconds 441 msec
