                         Program Version 5.0.4 -  RELEASE  -
|  1> ! B3LYP cc-pVDZ AUTOAUX
|  2> %pal nprocs 16 end
|  3> *XYZFile 0 2 opt.xyz
|  4> %EPRNMR
|  5>         GTENSOR   TRUE
|  6>         NUCLEI    = ALL H {SHIFT, AISO, ADIP, AORB}
|  7>         ORI       CenterOfElCharge
|  8> END
|  9>
| 10>                          ****END OF INPUT****

CARTESIAN COORDINATES (ANGSTROEM)
---------------------------------
  C      2.831806   -0.006236   -0.008272
  C     -1.314139   -0.014773   -0.012929
  C     -0.703841   -1.259958   -0.014279
  C      0.699293   -1.203568   -0.012429
  C      1.402358    0.023007   -0.009542
  C      0.708612    1.263431   -0.008102
  C     -0.699666    1.217589   -0.009942
  H      1.283513   -2.125515   -0.013363
  H     -1.285093    2.138713   -0.009038
  C     -1.509688   -2.548043   -0.017242
  H     -2.182378   -2.530206   -0.894243
  H     -2.180594   -2.535322    0.861245
  C     -0.708611   -3.852555   -0.021718
  H     -0.045377   -3.880501   -0.905977
  H     -0.045441   -3.886600    0.862377
  C     -1.603186   -5.097748   -0.025923
  H     -2.269586   -5.070311    0.856270
  H     -2.268554   -5.065066   -0.908715
  C     -0.811642   -6.407882   -0.029365
  H     -0.163127   -6.486668    0.860305
  H     -0.161649   -6.481086   -0.918435
  C      1.483960    2.566701   -0.004836
  H      2.159953    2.562804    0.870276
  H      2.160515    2.566853   -0.879537
  C      0.662999    3.858831   -0.002137
  H      0.000591    3.884733   -0.887173
  H     -0.000881    3.880108    0.881917
  C      1.540854    5.116159    0.001806
  H      2.206133    5.092323    0.884894
  H      2.207958    5.096581   -0.880007
  C      0.732381    6.415841    0.004122
  H      0.081081    6.481192    0.892854
  H      0.083265    6.485731   -0.885860
  C      4.053310   -0.041189   -0.009378
  H     -1.480462   -7.283854   -0.032687
  H      1.389551    7.300598    0.007195
  C      5.481187   -0.085650   -0.008586
  C      6.162322   -1.322563   -0.012255
  C      7.556386   -1.361278   -0.011394
  C      8.297343   -0.174069   -0.006934
  C      7.632552    1.057518   -0.003328
  C      6.238850    1.105969   -0.004137
  H      9.389310   -0.208771   -0.006270
  H      8.204901    1.988374    0.000175
  H      5.582883   -2.247731   -0.015759
  H      5.718665    2.065740   -0.001296
  H      8.069533   -2.326054   -0.014261

 Total Charge           Charge          ....    0
 Multiplicity           Mult            ....    2
 Number of Electrons    NEL             ....  157
 Basis Dimension        Dim             ....  433

ORBITAL ENERGIES
----------------
                 SPIN UP ORBITALS
  NO   OCC          E(Eh)            E(eV)
   0   1.0000     -10.213959      -277.9359
   1   1.0000     -10.206993      -277.7464
   2   1.0000     -10.203543      -277.6525
   3   1.0000     -10.203433      -277.6495
   4   1.0000     -10.199748      -277.5493
   5   1.0000     -10.194583      -277.4087
   6   1.0000     -10.194440      -277.4048
   7   1.0000     -10.194353      -277.4025
   8   1.0000     -10.193620      -277.3825
   9   1.0000     -10.193279      -277.3732
  10   1.0000     -10.192972      -277.3649
  11   1.0000     -10.191435      -277.3230
  12   1.0000     -10.190048      -277.2853
  13   1.0000     -10.186686      -277.1938
  14   1.0000     -10.186082      -277.1774
  15   1.0000     -10.183836      -277.1163
  16   1.0000     -10.182766      -277.0872
  17   1.0000     -10.182598      -277.0826
  18   1.0000     -10.182418      -277.0777
  19   1.0000     -10.182246      -277.0730
  20   1.0000     -10.176322      -276.9118
  21   1.0000     -10.176160      -276.9074
  22   1.0000      -0.870700       -23.6929
  23   1.0000      -0.860721       -23.4214
  24   1.0000      -0.813857       -22.1462
  25   1.0000      -0.795874       -21.6568
  26   1.0000      -0.786782       -21.4094
  27   1.0000      -0.769852       -20.9487
  28   1.0000      -0.760151       -20.6848
  29   1.0000      -0.748581       -20.3699
  30   1.0000      -0.732267       -19.9260
  31   1.0000      -0.712426       -19.3861
  32   1.0000      -0.698273       -19.0010
  33   1.0000      -0.652729       -17.7617
  34   1.0000      -0.630626       -17.1602
  35   1.0000      -0.617618       -16.8062
  36   1.0000      -0.606744       -16.5103
  37   1.0000      -0.605571       -16.4784
  38   1.0000      -0.582024       -15.8377
  39   1.0000      -0.577093       -15.7035
  40   1.0000      -0.563181       -15.3249
  41   1.0000      -0.534623       -14.5478
  42   1.0000      -0.506519       -13.7831
  43   1.0000      -0.477795       -13.0015
  44   1.0000      -0.471879       -12.8405
  45   1.0000      -0.471416       -12.8279
  46   1.0000      -0.470332       -12.7984
  47   1.0000      -0.455211       -12.3869
  48   1.0000      -0.441087       -12.0026
  49   1.0000      -0.434780       -11.8310
  50   1.0000      -0.427547       -11.6341
  51   1.0000      -0.423910       -11.5352
  52   1.0000      -0.422492       -11.4966
  53   1.0000      -0.421915       -11.4809
  54   1.0000      -0.417060       -11.3488
  55   1.0000      -0.413693       -11.2572
  56   1.0000      -0.411821       -11.2062
  57   1.0000      -0.381145       -10.3715
  58   1.0000      -0.378479       -10.2989
  59   1.0000      -0.372640       -10.1401
  60   1.0000      -0.366055        -9.9609
  61   1.0000      -0.364280        -9.9126
  62   1.0000      -0.357997        -9.7416
  63   1.0000      -0.356995        -9.7143
  64   1.0000      -0.348148        -9.4736
  65   1.0000      -0.341175        -9.2838
  66   1.0000      -0.334041        -9.0897
  67   1.0000      -0.331750        -9.0274
  68   1.0000      -0.327320        -8.9068
  69   1.0000      -0.324783        -8.8378
  70   1.0000      -0.322868        -8.7857
  71   1.0000      -0.322865        -8.7856
  72   1.0000      -0.312214        -8.4958
  73   1.0000      -0.268059        -7.2943
  74   1.0000      -0.265654        -7.2288
  75   1.0000      -0.256395        -6.9769
  76   1.0000      -0.242173        -6.5899
  77   1.0000      -0.235971        -6.4211
  78   1.0000      -0.209128        -5.6907
  79   0.0000      -0.049493        -1.3468
  80   0.0000      -0.008122        -0.2210
  81   0.0000      -0.003227        -0.0878
  82   0.0000       0.006371         0.1734
  83   0.0000       0.048478         1.3191

                 SPIN DOWN ORBITALS
  NO   OCC          E(Eh)            E(eV)
   0   1.0000     -10.213894      -277.9342
   1   1.0000     -10.207587      -277.7626
   2   1.0000     -10.202163      -277.6150
   3   1.0000     -10.199829      -277.5515
   4   1.0000     -10.194647      -277.4104
   5   1.0000     -10.194504      -277.4066
   6   1.0000     -10.193646      -277.3832
   7   1.0000     -10.193253      -277.3725
   8   1.0000     -10.193139      -277.3694
   9   1.0000     -10.192984      -277.3652
  10   1.0000     -10.191683      -277.3298
  11   1.0000     -10.189596      -277.2730
  12   1.0000     -10.188081      -277.2318
  13   1.0000     -10.186554      -277.1902
  14   1.0000     -10.186025      -277.1758
  15   1.0000     -10.183955      -277.1195
  16   1.0000     -10.182761      -277.0870
  17   1.0000     -10.182593      -277.0824
  18   1.0000     -10.182409      -277.0774
  19   1.0000     -10.182237      -277.0728
  20   1.0000     -10.176318      -276.9117
  21   1.0000     -10.176160      -276.9074
  22   1.0000      -0.865004       -23.5380
  23   1.0000      -0.860469       -23.4145
  24   1.0000      -0.812117       -22.0988
  25   1.0000      -0.795668       -21.6512
  26   1.0000      -0.784506       -21.3475
  27   1.0000      -0.768036       -20.8993
  28   1.0000      -0.756237       -20.5782
  29   1.0000      -0.748644       -20.3716
  30   1.0000      -0.730405       -19.8753
  31   1.0000      -0.709982       -19.3196
  32   1.0000      -0.696248       -18.9459
  33   1.0000      -0.651575       -17.7302
  34   1.0000      -0.628751       -17.1092
  35   1.0000      -0.615232       -16.7413
  36   1.0000      -0.606722       -16.5097
  37   1.0000      -0.600887       -16.3510
  38   1.0000      -0.580513       -15.7966
  39   1.0000      -0.572012       -15.5652
  40   1.0000      -0.560967       -15.2647
  41   1.0000      -0.533889       -14.5279
  42   1.0000      -0.505039       -13.7428
  43   1.0000      -0.477399       -12.9907
  44   1.0000      -0.471330       -12.8255
  45   1.0000      -0.470248       -12.7961
  46   1.0000      -0.466779       -12.7017
  47   1.0000      -0.455141       -12.3850
  48   1.0000      -0.434711       -11.8291
  49   1.0000      -0.433431       -11.7943
  50   1.0000      -0.425353       -11.5744
  51   1.0000      -0.422469       -11.4960
  52   1.0000      -0.422031       -11.4840
  53   1.0000      -0.421892       -11.4803
  54   1.0000      -0.416948       -11.3457
  55   1.0000      -0.411827       -11.2064
  56   1.0000      -0.406903       -11.0724
  57   1.0000      -0.381214       -10.3733
  58   1.0000      -0.374415       -10.1884
  59   1.0000      -0.371682       -10.1140
  60   1.0000      -0.365023        -9.9328
  61   1.0000      -0.361410        -9.8345
  62   1.0000      -0.357601        -9.7308
  63   1.0000      -0.356813        -9.7094
  64   1.0000      -0.348156        -9.4738
  65   1.0000      -0.340709        -9.2712
  66   1.0000      -0.333384        -9.0718
  67   1.0000      -0.330439        -8.9917
  68   1.0000      -0.326778        -8.8921
  69   1.0000      -0.324566        -8.8319
  70   1.0000      -0.322775        -8.7832
  71   1.0000      -0.321118        -8.7381
  72   1.0000      -0.310629        -8.4527
  73   1.0000      -0.265339        -7.2202
  74   1.0000      -0.265126        -7.2144
  75   1.0000      -0.256573        -6.9817
  76   1.0000      -0.242247        -6.5919
  77   1.0000      -0.205473        -5.5912
  78   0.0000      -0.077400        -2.1062
  79   0.0000      -0.045333        -1.2336
  80   0.0000      -0.008277        -0.2252
  81   0.0000      -0.003591        -0.0977
  82   0.0000       0.011123         0.3027

MULLIKEN ATOMIC CHARGES AND SPIN POPULATIONS
--------------------------------------------
   0 C :    0.233111    0.013570
   1 C :   -0.135326    0.999712
   2 C :   -0.015351   -0.067564
   3 C :    0.024323    0.058092
   4 C :   -0.165308   -0.040207
   5 C :   -0.100387    0.065034
   6 C :    0.058293   -0.066269
   7 H :   -0.050020    0.013229
   8 H :   -0.021569    0.018928
   9 C :    0.047149    0.015953
  10 H :    0.025923    0.000730
  11 H :    0.026035    0.000708
  12 C :   -0.042525    0.000568
  13 H :    0.016579   -0.000010
  14 H :    0.016626   -0.000009
  15 C :   -0.026349    0.000311
  16 H :    0.006414   -0.000031
  17 H :    0.006425   -0.000031
  18 C :    0.000218    0.000223
  19 H :    0.017385   -0.000015
  20 H :    0.017381   -0.000015
  21 C :    0.039505    0.005816
  22 H :    0.032872    0.002211
  23 H :    0.032890    0.002207
  24 C :   -0.035242    0.000337
  25 H :    0.015232    0.000095
  26 H :    0.015218    0.000095
  27 C :   -0.026113    0.000085
  28 H :    0.005888    0.000060
  29 H :    0.005893    0.000060
  30 C :    0.002944    0.000007
  31 H :    0.017214    0.000003
  32 H :    0.017221    0.000003
  33 C :    0.155851   -0.019358
  34 H :    0.013147    0.000030
  35 H :    0.012935   -0.000011
  36 C :   -0.246639    0.004350
  37 C :    0.029585   -0.004521
  38 C :    0.040038    0.002309
  39 C :    0.031931   -0.004868
  40 C :    0.039796    0.002305
  41 C :    0.027000   -0.004520
  42 H :   -0.028160    0.000219
  43 H :   -0.028048   -0.000088
  44 H :   -0.041315    0.000173
  45 H :   -0.040715    0.000181
  46 H :   -0.027954   -0.000088
Sum of atomic charges         :   -0.0000000

LOEWDIN ATOMIC CHARGES AND SPIN POPULATIONS
-------------------------------------------
   0 C :   -0.016960    0.006936
   1 C :    0.024103    0.855137
   2 C :   -0.054411    0.022963
   3 C :    0.001940    0.047116
   4 C :   -0.060589   -0.025218
   5 C :    0.002175    0.048892
   6 C :   -0.057993    0.019134
   7 H :    0.028593    0.008226
   8 H :    0.032159    0.012899
   9 C :   -0.032457    0.011909
  10 H :    0.036726    0.000312
  11 H :    0.036764    0.000292
  12 C :   -0.044314    0.000477
  13 H :    0.024638    0.000039
  14 H :    0.024630    0.000039
  15 C :   -0.047328    0.000233
  16 H :    0.024038   -0.000012
  17 H :    0.024042   -0.000012
  18 C :   -0.067538    0.000162
  19 H :    0.025301   -0.000003
  20 H :    0.025304   -0.000003
  21 C :   -0.035601    0.005969
  22 H :    0.039146    0.001827
  23 H :    0.039167    0.001824
  24 C :   -0.043740    0.000493
  25 H :    0.024072    0.000077
  26 H :    0.024075    0.000077
  27 C :   -0.047204    0.000230
  28 H :    0.024044    0.000051
  29 H :    0.024045    0.000050
  30 C :   -0.067664   -0.000004
  31 H :    0.025214    0.000003
  32 H :    0.025213    0.000003
  33 C :   -0.028340   -0.013998
  34 H :    0.027631    0.000029
  35 H :    0.027565   -0.000007
  36 C :   -0.052724    0.001959
  37 C :   -0.002773   -0.003516
  38 C :   -0.024307    0.001359
  39 C :   -0.023199   -0.003777
  40 C :   -0.024485    0.001355
  41 C :   -0.003749   -0.003511
  42 H :    0.027726   -0.000017
  43 H :    0.028949    0.000007
  44 H :    0.029627   -0.000008
  45 H :    0.029462   -0.000004
  46 H :    0.029027    0.000008

  Mayer bond orders larger than 0.100000
B(  0-C ,  4-C ) :   0.9041 B(  0-C , 33-C ) :   1.7837 B(  0-C , 36-C ) :  -0.1630
B(  1-C ,  2-C ) :   1.3941 B(  1-C ,  6-C ) :   1.4447 B(  2-C ,  3-C ) :   1.4328
B(  2-C ,  9-C ) :   1.0449 B(  3-C ,  4-C ) :   1.4171 B(  3-C ,  7-H ) :   0.9221
B(  4-C ,  5-C ) :   1.4136 B(  4-C , 33-C ) :  -0.1016 B(  5-C ,  6-C ) :   1.4550
B(  5-C , 21-C ) :   1.0884 B(  6-C ,  8-H ) :   0.9099 B(  9-C , 10-H ) :   0.9171
B(  9-C , 11-H ) :   0.9170 B(  9-C , 12-C ) :   1.1024 B( 12-C , 13-H ) :   0.9310
B( 12-C , 14-H ) :   0.9309 B( 12-C , 15-C ) :   1.0754 B( 15-C , 16-H ) :   0.9415
B( 15-C , 17-H ) :   0.9415 B( 15-C , 18-C ) :   1.1056 B( 18-C , 19-H ) :   0.9666
B( 18-C , 20-H ) :   0.9666 B( 18-C , 34-H ) :   0.9622 B( 21-C , 22-H ) :   0.8984
B( 21-C , 23-H ) :   0.8984 B( 21-C , 24-C ) :   1.1010 B( 24-C , 25-H ) :   0.9298
B( 24-C , 26-H ) :   0.9298 B( 24-C , 27-C ) :   1.0758 B( 27-C , 28-H ) :   0.9412
B( 27-C , 29-H ) :   0.9412 B( 27-C , 30-C ) :   1.1062 B( 30-C , 31-H ) :   0.9662
B( 30-C , 32-H ) :   0.9662 B( 30-C , 35-H ) :   0.9617 B( 33-C , 36-C ) :   0.9229
B( 36-C , 37-C ) :   1.4426 B( 36-C , 41-C ) :   1.4398 B( 37-C , 38-C ) :   1.4700
B( 37-C , 44-H ) :   0.9398 B( 38-C , 39-C ) :   1.4450 B( 38-C , 46-H ) :   0.9377
B( 39-C , 40-C ) :   1.4442 B( 39-C , 42-H ) :   0.9431 B( 40-C , 41-C ) :   1.4702
B( 40-C , 43-H ) :   0.9378 B( 41-C , 45-H ) :   0.9401

FINAL SINGLE POINT ENERGY      -852.751666477458

DIPOLE MOMENT
-------------
                                X             Y             Z
Electronic contribution:     15.82434      -0.23640       0.01506
Nuclear contribution   :    -15.62451       0.23028      -0.01489
                        -----------------------------------------
Total Dipole Moment    :      0.19983      -0.00612       0.00017
                        -----------------------------------------
Magnitude (a.u.)       :      0.19993
Magnitude (Debye)      :      0.50817

Rotational constants in cm-1:     0.007056     0.004915     0.002910
Rotational constants in MHz :   211.539302   147.336779    87.224688

CHEMICAL SHIELDING SUMMARY (ppm)  --  Orbital contribution
----------------------------------------------------------

  Nucleus  Element    Isotropic     Anisotropy
  -------  -------  ------------   ------------
      7       H           97.140         11.045
      8       H            7.527         28.889
     10       H           10.056         35.620
     11       H           10.160         35.678
     13       H          101.580         12.773
     14       H          101.524         12.749
     16       H           -8.483         28.074
     17       H           -8.426         28.053
     19       H           45.998         11.208
     20       H           46.094         11.190
     22       H           99.028         27.736
     23       H           99.013         27.741
     25       H           44.564         28.222
     26       H           44.583         28.210
     28       H           59.320         17.021
     29       H           59.330         17.004
     31       H           -1.094         22.576
     32       H           -1.099         22.587
     34       H          -87.295       -103.330
     35       H          -49.664         25.964
     42       H         -114.172       -164.042
     43       H          -49.717          2.844
     44       H           86.752         18.707
     45       H           84.420         20.988
     46       H          -46.839          4.141

                             ****ORCA TERMINATED NORMALLY****
TOTAL RUN TIME: 0 days 1 hours 6 minutes 22 seconds 787 msec
