                         Program Version 5.0.4 -  RELEASE  -
|  1> ! B3LYP EPR-II AUTOAUX
|  2> %pal nprocs 16 end
|  3> *XYZFile 0 2 opt_EPRII.xyz
|  4> %EPRNMR
|  5>         GTENSOR   TRUE
|  6>         NUCLEI    = ALL H {SHIFT, AISO, ADIP, AORB}
|  7>         ORI       GIAO
|  8> END
|  9>
| 10>                          ****END OF INPUT****

CARTESIAN COORDINATES (ANGSTROEM)
---------------------------------
  C      2.832750   -0.007026   -0.008538
  C     -1.321227   -0.009087   -0.012934
  C     -0.711139   -1.259621   -0.014747
  C      0.696046   -1.205428   -0.012952
  C      1.400111    0.024530   -0.009719
  C      0.708755    1.269203   -0.007834
  C     -0.704171    1.227961   -0.009590
  H      1.274749   -2.124003   -0.014183
  H     -1.285017    2.144564   -0.008357
  C     -1.521335   -2.550266   -0.018223
  H     -2.184720   -2.534794   -0.893032
  H     -2.184690   -2.539529    0.856693
  C     -0.710102   -3.855592   -0.021701
  H     -0.053522   -3.882624   -0.901529
  H     -0.055086   -3.888234    0.859109
  C     -1.606343   -5.107042   -0.026447
  H     -2.265608   -5.083452    0.851417
  H     -2.263281   -5.078429   -0.905902
  C     -0.803343   -6.419535   -0.029157
  H     -0.161252   -6.490161    0.856030
  H     -0.158238   -6.484648   -0.912573
  C      1.488454    2.575873   -0.004295
  H      2.155155    2.573760    0.868595
  H      2.156044    2.577927   -0.876519
  C      0.657236    3.868331   -0.001653
  H      0.002419    3.893449   -0.882978
  H      0.000572    3.888696    0.878415
  C      1.536624    5.132056    0.002664
  H      2.193846    5.112142    0.882153
  H      2.196059    5.116609   -0.875258
  C      0.716770    6.433947    0.004962
  H      0.070983    6.491216    0.888453
  H      0.073737    6.496095   -0.880208
  C      4.057560   -0.041158   -0.009585
  H     -1.465005   -7.291860   -0.032997
  H      1.367006    7.314871    0.008399
  C      5.489295   -0.089648   -0.008845
  C      6.166131   -1.333882   -0.009628
  C      7.565134   -1.378457   -0.008865
  C      8.314078   -0.189238   -0.007346
  C      7.650717    1.049831   -0.006591
  C      6.251984    1.103767   -0.007353
  H      9.400065   -0.227665   -0.006767
  H      8.224047    1.973231   -0.005425
  H      5.585595   -2.251669   -0.010807
  H      5.738049    2.060418   -0.006803
  H      8.072255   -2.339826   -0.009462

 Total Charge           Charge          ....    0
 Multiplicity           Mult            ....    2
 Number of Electrons    NEL             ....  157
 Basis Dimension        Dim             ....  549

ORBITAL ENERGIES
----------------
                 SPIN UP ORBITALS
  NO   OCC          E(Eh)            E(eV)
   0   1.0000     -10.226328      -278.2725
   1   1.0000     -10.217619      -278.0356
   2   1.0000     -10.214512      -277.9510
   3   1.0000     -10.213642      -277.9273
   4   1.0000     -10.210336      -277.8374
   5   1.0000     -10.203441      -277.6497
   6   1.0000     -10.203289      -277.6456
   7   1.0000     -10.203088      -277.6401
   8   1.0000     -10.202635      -277.6278
   9   1.0000     -10.202412      -277.6218
  10   1.0000     -10.201440      -277.5953
  11   1.0000     -10.199389      -277.5395
  12   1.0000     -10.199352      -277.5385
  13   1.0000     -10.197154      -277.4787
  14   1.0000     -10.190108      -277.2869
  15   1.0000     -10.187065      -277.2041
  16   1.0000     -10.182221      -277.0723
  17   1.0000     -10.181879      -277.0630
  18   1.0000     -10.181863      -277.0626
  19   1.0000     -10.181603      -277.0555
  20   1.0000     -10.171598      -276.7832
  21   1.0000     -10.171498      -276.7805
  22   1.0000      -0.868041       -23.6206
  23   1.0000      -0.858439       -23.3593
  24   1.0000      -0.810880       -22.0652
  25   1.0000      -0.792746       -21.5717
  26   1.0000      -0.785436       -21.3728
  27   1.0000      -0.767506       -20.8849
  28   1.0000      -0.758856       -20.6495
  29   1.0000      -0.748274       -20.3616
  30   1.0000      -0.730036       -19.8653
  31   1.0000      -0.712100       -19.3772
  32   1.0000      -0.696754       -18.9596
  33   1.0000      -0.651901       -17.7391
  34   1.0000      -0.630544       -17.1580
  35   1.0000      -0.617668       -16.8076
  36   1.0000      -0.607744       -16.5375
  37   1.0000      -0.605754       -16.4834
  38   1.0000      -0.582356       -15.8467
  39   1.0000      -0.577531       -15.7154
  40   1.0000      -0.564029       -15.3480
  41   1.0000      -0.535387       -14.5686
  42   1.0000      -0.506086       -13.7713
  43   1.0000      -0.480666       -13.0796
  44   1.0000      -0.471771       -12.8376
  45   1.0000      -0.470796       -12.8110
  46   1.0000      -0.469501       -12.7758
  47   1.0000      -0.453240       -12.3333
  48   1.0000      -0.442229       -12.0337
  49   1.0000      -0.436540       -11.8789
  50   1.0000      -0.426002       -11.5921
  51   1.0000      -0.423816       -11.5326
  52   1.0000      -0.423184       -11.5154
  53   1.0000      -0.421591       -11.4721
  54   1.0000      -0.418375       -11.3846
  55   1.0000      -0.412661       -11.2291
  56   1.0000      -0.411317       -11.1925
  57   1.0000      -0.379938       -10.3386
  58   1.0000      -0.376548       -10.2464
  59   1.0000      -0.372039       -10.1237
  60   1.0000      -0.365325        -9.9410
  61   1.0000      -0.363842        -9.9006
  62   1.0000      -0.359756        -9.7894
  63   1.0000      -0.358885        -9.7658
  64   1.0000      -0.350494        -9.5374
  65   1.0000      -0.342718        -9.3258
  66   1.0000      -0.331736        -9.0270
  67   1.0000      -0.330898        -9.0042
  68   1.0000      -0.326289        -8.8788
  69   1.0000      -0.325472        -8.8565
  70   1.0000      -0.324543        -8.8313
  71   1.0000      -0.320410        -8.7188
  72   1.0000      -0.311736        -8.4828
  73   1.0000      -0.267785        -7.2868
  74   1.0000      -0.266108        -7.2412
  75   1.0000      -0.256321        -6.9748
  76   1.0000      -0.242121        -6.5885
  77   1.0000      -0.237230        -6.4553
  78   1.0000      -0.209661        -5.7052
  79   0.0000      -0.051865        -1.4113
  80   0.0000      -0.013380        -0.3641
  81   0.0000      -0.006259        -0.1703
  82   0.0000       0.002676         0.0728
  83   0.0000       0.016326         0.4443

                 SPIN DOWN ORBITALS
  NO   OCC          E(Eh)            E(eV)
   0   1.0000     -10.226259      -278.2707
   1   1.0000     -10.218221      -278.0519
   2   1.0000     -10.212277      -277.8902
   3   1.0000     -10.210427      -277.8398
   4   1.0000     -10.203485      -277.6509
   5   1.0000     -10.203337      -277.6469
   6   1.0000     -10.203154      -277.6419
   7   1.0000     -10.202622      -277.6275
   8   1.0000     -10.202412      -277.6217
   9   1.0000     -10.200223      -277.5622
  10   1.0000     -10.199807      -277.5509
  11   1.0000     -10.199355      -277.5386
  12   1.0000     -10.199185      -277.5339
  13   1.0000     -10.197250      -277.4813
  14   1.0000     -10.189658      -277.2747
  15   1.0000     -10.186932      -277.2005
  16   1.0000     -10.182219      -277.0723
  17   1.0000     -10.181872      -277.0628
  18   1.0000     -10.181855      -277.0624
  19   1.0000     -10.181595      -277.0553
  20   1.0000     -10.171593      -276.7831
  21   1.0000     -10.171499      -276.7806
  22   1.0000      -0.862457       -23.4687
  23   1.0000      -0.858133       -23.3510
  24   1.0000      -0.809094       -22.0166
  25   1.0000      -0.792610       -21.5680
  26   1.0000      -0.783219       -21.3125
  27   1.0000      -0.765517       -20.8308
  28   1.0000      -0.755072       -20.5465
  29   1.0000      -0.748338       -20.3633
  30   1.0000      -0.728212       -19.8157
  31   1.0000      -0.709603       -19.3093
  32   1.0000      -0.694802       -18.9065
  33   1.0000      -0.650763       -17.7082
  34   1.0000      -0.628794       -17.1104
  35   1.0000      -0.615415       -16.7463
  36   1.0000      -0.607759       -16.5380
  37   1.0000      -0.601068       -16.3559
  38   1.0000      -0.581146       -15.8138
  39   1.0000      -0.572135       -15.5686
  40   1.0000      -0.561719       -15.2852
  41   1.0000      -0.534621       -14.5478
  42   1.0000      -0.504620       -13.7314
  43   1.0000      -0.480267       -13.0687
  44   1.0000      -0.471687       -12.8353
  45   1.0000      -0.470717       -12.8089
  46   1.0000      -0.464474       -12.6390
  47   1.0000      -0.453178       -12.3316
  48   1.0000      -0.436153       -11.8683
  49   1.0000      -0.435020       -11.8375
  50   1.0000      -0.423880       -11.5344
  51   1.0000      -0.423578       -11.5262
  52   1.0000      -0.422764       -11.5040
  53   1.0000      -0.420019       -11.4293
  54   1.0000      -0.418268       -11.3816
  55   1.0000      -0.411154       -11.1881
  56   1.0000      -0.406036       -11.0488
  57   1.0000      -0.379910       -10.3379
  58   1.0000      -0.372852       -10.1458
  59   1.0000      -0.371221       -10.1014
  60   1.0000      -0.364172        -9.9096
  61   1.0000      -0.361509        -9.8372
  62   1.0000      -0.358792        -9.7632
  63   1.0000      -0.358721        -9.7613
  64   1.0000      -0.350496        -9.5375
  65   1.0000      -0.342176        -9.3111
  66   1.0000      -0.331091        -9.0094
  67   1.0000      -0.329759        -8.9732
  68   1.0000      -0.326105        -8.8738
  69   1.0000      -0.324824        -8.8389
  70   1.0000      -0.324455        -8.8289
  71   1.0000      -0.318792        -8.6748
  72   1.0000      -0.310062        -8.4372
  73   1.0000      -0.265781        -7.2323
  74   1.0000      -0.264819        -7.2061
  75   1.0000      -0.256503        -6.9798
  76   1.0000      -0.242200        -6.5906
  77   1.0000      -0.205985        -5.6051
  78   0.0000      -0.083779        -2.2797
  79   0.0000      -0.047802        -1.3008
  80   0.0000      -0.013533        -0.3683
  81   0.0000      -0.006551        -0.1783
  82   0.0000       0.007379         0.2008

MULLIKEN ATOMIC CHARGES AND SPIN POPULATIONS
--------------------------------------------
   0 C :   -0.363026    0.014722
   1 C :   -0.332933    1.022040
   2 C :    0.486631   -0.082592
   3 C :   -0.417561    0.053193
   4 C :    0.521028   -0.034223
   5 C :    0.217813    0.057324
   6 C :   -0.219239   -0.077935
   7 H :    0.136441    0.011385
   8 H :    0.128790    0.021594
   9 C :   -0.373066    0.029562
  10 H :    0.152736   -0.001276
  11 H :    0.152808   -0.001277
  12 C :   -0.265897    0.000905
  13 H :    0.144157    0.000053
  14 H :    0.144103    0.000054
  15 C :   -0.266153    0.000123
  16 H :    0.144733   -0.000013
  17 H :    0.144778   -0.000013
  18 C :   -0.510383    0.000126
  19 H :    0.160197   -0.000010
  20 H :    0.160184   -0.000010
  21 C :   -0.341699    0.006815
  22 H :    0.155322    0.001654
  23 H :    0.155240    0.001650
  24 C :   -0.274452    0.000027
  25 H :    0.142224    0.000165
  26 H :    0.142243    0.000166
  27 C :   -0.266690    0.000112
  28 H :    0.145077   -0.000016
  29 H :    0.145044   -0.000016
  30 C :   -0.511532   -0.000032
  31 H :    0.160041    0.000001
  32 H :    0.160054    0.000001
  33 C :   -0.312010   -0.019144
  34 H :    0.145440    0.000022
  35 H :    0.145035   -0.000009
  36 C :    0.590326    0.003931
  37 C :   -0.281899   -0.004639
  38 C :   -0.098545    0.002403
  39 C :   -0.125351   -0.005088
  40 C :   -0.101729    0.002407
  41 C :   -0.275726   -0.004671
  42 H :    0.106907    0.000284
  43 H :    0.105820   -0.000116
  44 H :    0.119703    0.000239
  45 H :    0.119063    0.000237
  46 H :    0.105953   -0.000116
Sum of atomic charges         :   -0.0000000

LOEWDIN ATOMIC CHARGES AND SPIN POPULATIONS
-------------------------------------------
   0 C :   -0.028739    0.007156
   1 C :    0.010912    0.840211
   2 C :   -0.091288    0.032036
   3 C :   -0.001668    0.044298
   4 C :   -0.075396   -0.026198
   5 C :   -0.034832    0.047479
   6 C :   -0.060932    0.024970
   7 H :    0.060358    0.007945
   8 H :    0.059296    0.015688
   9 C :   -0.050386    0.018092
  10 H :    0.055680   -0.001086
  11 H :    0.055685   -0.001089
  12 C :   -0.079438    0.000401
  13 H :    0.044791    0.000046
  14 H :    0.044777    0.000046
  15 C :   -0.090095    0.000248
  16 H :    0.040929   -0.000004
  17 H :    0.040926   -0.000004
  18 C :   -0.078438    0.000161
  19 H :    0.034048   -0.000004
  20 H :    0.034052   -0.000004
  21 C :   -0.044327    0.006227
  22 H :    0.059472    0.001461
  23 H :    0.059478    0.001460
  24 C :   -0.080016    0.000470
  25 H :    0.044420    0.000087
  26 H :    0.044425    0.000087
  27 C :   -0.090310    0.000397
  28 H :    0.040928    0.000005
  29 H :    0.040927    0.000005
  30 C :   -0.078816    0.000001
  31 H :    0.034058    0.000002
  32 H :    0.034055    0.000002
  33 C :   -0.040773   -0.014267
  34 H :    0.031618    0.000025
  35 H :    0.031649   -0.000006
  36 C :   -0.071278    0.002094
  37 C :   -0.016938   -0.003697
  38 C :   -0.043234    0.001479
  39 C :   -0.044592   -0.003974
  40 C :   -0.043598    0.001478
  41 C :   -0.017474   -0.003688
  42 H :    0.048809   -0.000029
  43 H :    0.049986    0.000011
  44 H :    0.055793   -0.000014
  45 H :    0.055412   -0.000014
  46 H :    0.050085    0.000012

  Mayer bond orders larger than 0.100000
B(  0-C ,  4-C ) :   0.8074 B(  0-C ,  5-C ) :   0.1076 B(  0-C , 33-C ) :   2.5123
B(  1-C ,  2-C ) :   1.2405 B(  1-C ,  3-C ) :   0.1162 B(  1-C ,  5-C ) :   0.1150
B(  1-C ,  6-C ) :   1.3973 B(  2-C ,  3-C ) :   1.4263 B(  2-C ,  9-C ) :   0.9090
B(  3-C ,  4-C ) :   1.4544 B(  3-C ,  7-H ) :   0.9829 B(  4-C ,  5-C ) :   1.4071
B(  4-C ,  6-C ) :   0.1004 B(  5-C ,  6-C ) :   1.3845 B(  5-C , 21-C ) :   0.9761
B(  6-C ,  8-H ) :   0.9717 B(  9-C , 10-H ) :   0.9676 B(  9-C , 11-H ) :   0.9675
B(  9-C , 12-C ) :   1.0175 B( 12-C , 13-H ) :   0.9631 B( 12-C , 14-H ) :   0.9631
B( 12-C , 15-C ) :   0.9838 B( 15-C , 16-H ) :   0.9725 B( 15-C , 17-H ) :   0.9725
B( 15-C , 18-C ) :   0.9557 B( 18-C , 19-H ) :   0.9721 B( 18-C , 20-H ) :   0.9721
B( 18-C , 34-H ) :   0.9682 B( 21-C , 22-H ) :   0.9537 B( 21-C , 23-H ) :   0.9539
B( 21-C , 24-C ) :   1.0150 B( 24-C , 25-H ) :   0.9626 B( 24-C , 26-H ) :   0.9627
B( 24-C , 27-C ) :   0.9888 B( 27-C , 28-H ) :   0.9719 B( 27-C , 29-H ) :   0.9719
B( 27-C , 30-C ) :   0.9545 B( 30-C , 31-H ) :   0.9729 B( 30-C , 32-H ) :   0.9729
B( 30-C , 35-H ) :   0.9675 B( 33-C , 36-C ) :   1.0046 B( 36-C , 37-C ) :   1.3896
B( 36-C , 41-C ) :   1.3853 B( 37-C , 38-C ) :   1.4761 B( 37-C , 44-H ) :   0.9820
B( 38-C , 39-C ) :   1.4525 B( 38-C , 46-H ) :   0.9761 B( 39-C , 40-C ) :   1.4553
B( 39-C , 42-H ) :   0.9659 B( 40-C , 41-C ) :   1.4759 B( 40-C , 43-H ) :   0.9771
B( 41-C , 45-H ) :   0.9800

FINAL SINGLE POINT ENERGY      -852.824507983850

DIPOLE MOMENT
-------------
                                X             Y             Z
Electronic contribution:     15.89511      -0.25152       0.01212
Nuclear contribution   :    -15.66210       0.24861      -0.01201
                        -----------------------------------------
Total Dipole Moment    :      0.23300      -0.00291       0.00012
                        -----------------------------------------
Magnitude (a.u.)       :      0.23302
Magnitude (Debye)      :      0.59230

Rotational constants in cm-1:     0.007003     0.004905     0.002897
Rotational constants in MHz :   209.949858   147.058750    86.853095

CHEMICAL SHIELDING SUMMARY (ppm)  --  Orbital contribution
----------------------------------------------------------

  Nucleus  Element    Isotropic     Anisotropy
  -------  -------  ------------   ------------
      7       H           24.344         13.041
      8       H           24.500          8.690
     10       H           28.964          6.285
     11       H           28.963          6.283
     13       H           30.182          4.820
     14       H           30.181          4.818
     16       H           30.359          6.856
     17       H           30.359          6.858
     19       H           30.944          7.910
     20       H           30.944          7.907
     22       H           28.772          6.242
     23       H           28.772          6.237
     25       H           30.155          4.962
     26       H           30.156          4.963
     28       H           30.280          6.307
     29       H           30.280          6.308
     31       H           30.943          8.245
     32       H           30.942          8.245
     34       H           30.726         10.401
     35       H           30.700         10.368
     42       H           24.334          4.674
     43       H           24.322          5.600
     44       H           24.073          8.006
     45       H           24.058          8.102
     46       H           24.304          5.320

                             ****ORCA TERMINATED NORMALLY****
TOTAL RUN TIME: 0 days 1 hours 15 minutes 4 seconds 112 msec
