                         Program Version 5.0.4 -  RELEASE  -
|  1> ! B3LYP EPR-II AUTOAUX
|  2> %pal nprocs 16 end
|  3> *XYZFile 0 2 opt_EPRII.xyz
|  4> %EPRNMR
|  5>         GTENSOR   TRUE
|  6>         NUCLEI    = ALL H {SHIFT, AISO, ADIP, AORB}
|  7>         ORI       CenterOfElCharge
|  8> END
|  9>
| 10>                          ****END OF INPUT****

CARTESIAN COORDINATES (ANGSTROEM)
---------------------------------
  C      2.832750   -0.007026   -0.008538
  C     -1.321227   -0.009087   -0.012934
  C     -0.711139   -1.259621   -0.014747
  C      0.696046   -1.205428   -0.012952
  C      1.400111    0.024530   -0.009719
  C      0.708755    1.269203   -0.007834
  C     -0.704171    1.227961   -0.009590
  H      1.274749   -2.124003   -0.014183
  H     -1.285017    2.144564   -0.008357
  C     -1.521335   -2.550266   -0.018223
  H     -2.184720   -2.534794   -0.893032
  H     -2.184690   -2.539529    0.856693
  C     -0.710102   -3.855592   -0.021701
  H     -0.053522   -3.882624   -0.901529
  H     -0.055086   -3.888234    0.859109
  C     -1.606343   -5.107042   -0.026447
  H     -2.265608   -5.083452    0.851417
  H     -2.263281   -5.078429   -0.905902
  C     -0.803343   -6.419535   -0.029157
  H     -0.161252   -6.490161    0.856030
  H     -0.158238   -6.484648   -0.912573
  C      1.488454    2.575873   -0.004295
  H      2.155155    2.573760    0.868595
  H      2.156044    2.577927   -0.876519
  C      0.657236    3.868331   -0.001653
  H      0.002419    3.893449   -0.882978
  H      0.000572    3.888696    0.878415
  C      1.536624    5.132056    0.002664
  H      2.193846    5.112142    0.882153
  H      2.196059    5.116609   -0.875258
  C      0.716770    6.433947    0.004962
  H      0.070983    6.491216    0.888453
  H      0.073737    6.496095   -0.880208
  C      4.057560   -0.041158   -0.009585
  H     -1.465005   -7.291860   -0.032997
  H      1.367006    7.314871    0.008399
  C      5.489295   -0.089648   -0.008845
  C      6.166131   -1.333882   -0.009628
  C      7.565134   -1.378457   -0.008865
  C      8.314078   -0.189238   -0.007346
  C      7.650717    1.049831   -0.006591
  C      6.251984    1.103767   -0.007353
  H      9.400065   -0.227665   -0.006767
  H      8.224047    1.973231   -0.005425
  H      5.585595   -2.251669   -0.010807
  H      5.738049    2.060418   -0.006803
  H      8.072255   -2.339826   -0.009462

 Total Charge           Charge          ....    0
 Multiplicity           Mult            ....    2
 Number of Electrons    NEL             ....  157
 Basis Dimension        Dim             ....  549

ORBITAL ENERGIES
----------------
                 SPIN UP ORBITALS
  NO   OCC          E(Eh)            E(eV)
   0   1.0000     -10.226215      -278.2695
   1   1.0000     -10.217729      -278.0385
   2   1.0000     -10.214487      -277.9503
   3   1.0000     -10.213705      -277.9290
   4   1.0000     -10.210335      -277.8373
   5   1.0000     -10.203424      -277.6493
   6   1.0000     -10.203266      -277.6450
   7   1.0000     -10.203070      -277.6397
   8   1.0000     -10.202634      -277.6278
   9   1.0000     -10.202428      -277.6222
  10   1.0000     -10.201507      -277.5971
  11   1.0000     -10.199441      -277.5409
  12   1.0000     -10.199352      -277.5385
  13   1.0000     -10.197090      -277.4769
  14   1.0000     -10.190100      -277.2867
  15   1.0000     -10.187085      -277.2047
  16   1.0000     -10.182220      -277.0723
  17   1.0000     -10.181873      -277.0628
  18   1.0000     -10.181858      -277.0625
  19   1.0000     -10.181595      -277.0553
  20   1.0000     -10.171588      -276.7830
  21   1.0000     -10.171486      -276.7802
  22   1.0000      -0.868074       -23.6215
  23   1.0000      -0.858408       -23.3585
  24   1.0000      -0.810891       -22.0655
  25   1.0000      -0.792750       -21.5718
  26   1.0000      -0.785431       -21.3727
  27   1.0000      -0.767505       -20.8849
  28   1.0000      -0.758869       -20.6499
  29   1.0000      -0.748255       -20.3610
  30   1.0000      -0.730038       -19.8654
  31   1.0000      -0.712103       -19.3773
  32   1.0000      -0.696759       -18.9598
  33   1.0000      -0.651910       -17.7394
  34   1.0000      -0.630545       -17.1580
  35   1.0000      -0.617666       -16.8076
  36   1.0000      -0.607723       -16.5370
  37   1.0000      -0.605761       -16.4836
  38   1.0000      -0.582366       -15.8470
  39   1.0000      -0.577537       -15.7156
  40   1.0000      -0.564043       -15.3484
  41   1.0000      -0.535365       -14.5680
  42   1.0000      -0.506111       -13.7720
  43   1.0000      -0.480648       -13.0791
  44   1.0000      -0.471772       -12.8376
  45   1.0000      -0.470798       -12.8111
  46   1.0000      -0.469524       -12.7764
  47   1.0000      -0.453217       -12.3327
  48   1.0000      -0.442251       -12.0343
  49   1.0000      -0.436526       -11.8785
  50   1.0000      -0.426012       -11.5924
  51   1.0000      -0.423800       -11.5322
  52   1.0000      -0.423190       -11.5156
  53   1.0000      -0.421596       -11.4722
  54   1.0000      -0.418377       -11.3846
  55   1.0000      -0.412669       -11.2293
  56   1.0000      -0.411330       -11.1929
  57   1.0000      -0.379927       -10.3383
  58   1.0000      -0.376555       -10.2466
  59   1.0000      -0.372035       -10.1236
  60   1.0000      -0.365328        -9.9411
  61   1.0000      -0.363852        -9.9009
  62   1.0000      -0.359744        -9.7891
  63   1.0000      -0.358887        -9.7658
  64   1.0000      -0.350478        -9.5370
  65   1.0000      -0.342731        -9.3262
  66   1.0000      -0.331737        -9.0270
  67   1.0000      -0.330897        -9.0042
  68   1.0000      -0.326289        -8.8788
  69   1.0000      -0.325471        -8.8565
  70   1.0000      -0.324544        -8.8313
  71   1.0000      -0.320419        -8.7190
  72   1.0000      -0.311735        -8.4827
  73   1.0000      -0.267790        -7.2869
  74   1.0000      -0.266106        -7.2411
  75   1.0000      -0.256304        -6.9744
  76   1.0000      -0.242142        -6.5890
  77   1.0000      -0.237227        -6.4553
  78   1.0000      -0.209663        -5.7052
  79   0.0000      -0.051865        -1.4113
  80   0.0000      -0.013364        -0.3636
  81   0.0000      -0.006282        -0.1709
  82   0.0000       0.002673         0.0727
  83   0.0000       0.016329         0.4443

                 SPIN DOWN ORBITALS
  NO   OCC          E(Eh)            E(eV)
   0   1.0000     -10.226147      -278.2676
   1   1.0000     -10.218330      -278.0549
   2   1.0000     -10.212340      -277.8919
   3   1.0000     -10.210425      -277.8398
   4   1.0000     -10.203463      -277.6503
   5   1.0000     -10.203315      -277.6463
   6   1.0000     -10.203137      -277.6415
   7   1.0000     -10.202624      -277.6275
   8   1.0000     -10.202427      -277.6222
   9   1.0000     -10.200291      -277.5640
  10   1.0000     -10.199798      -277.5506
  11   1.0000     -10.199379      -277.5392
  12   1.0000     -10.199171      -277.5335
  13   1.0000     -10.197214      -277.4803
  14   1.0000     -10.189650      -277.2745
  15   1.0000     -10.186952      -277.2011
  16   1.0000     -10.182218      -277.0722
  17   1.0000     -10.181866      -277.0627
  18   1.0000     -10.181850      -277.0622
  19   1.0000     -10.181587      -277.0551
  20   1.0000     -10.171584      -276.7829
  21   1.0000     -10.171487      -276.7802
  22   1.0000      -0.862486       -23.4694
  23   1.0000      -0.858109       -23.3503
  24   1.0000      -0.809103       -22.0168
  25   1.0000      -0.792614       -21.5681
  26   1.0000      -0.783206       -21.3121
  27   1.0000      -0.765520       -20.8309
  28   1.0000      -0.755088       -20.5470
  29   1.0000      -0.748319       -20.3628
  30   1.0000      -0.728215       -19.8157
  31   1.0000      -0.709606       -19.3094
  32   1.0000      -0.694807       -18.9067
  33   1.0000      -0.650772       -17.7084
  34   1.0000      -0.628793       -17.1103
  35   1.0000      -0.615410       -16.7462
  36   1.0000      -0.607738       -16.5374
  37   1.0000      -0.601079       -16.3562
  38   1.0000      -0.581152       -15.8140
  39   1.0000      -0.572146       -15.5689
  40   1.0000      -0.561737       -15.2856
  41   1.0000      -0.534599       -14.5472
  42   1.0000      -0.504646       -13.7321
  43   1.0000      -0.480250       -13.0683
  44   1.0000      -0.471688       -12.8353
  45   1.0000      -0.470719       -12.8089
  46   1.0000      -0.464495       -12.6396
  47   1.0000      -0.453156       -12.3310
  48   1.0000      -0.436137       -11.8679
  49   1.0000      -0.435040       -11.8380
  50   1.0000      -0.423867       -11.5340
  51   1.0000      -0.423582       -11.5263
  52   1.0000      -0.422770       -11.5042
  53   1.0000      -0.420024       -11.4294
  54   1.0000      -0.418270       -11.3817
  55   1.0000      -0.411158       -11.1882
  56   1.0000      -0.406057       -11.0494
  57   1.0000      -0.379897       -10.3375
  58   1.0000      -0.372861       -10.1461
  59   1.0000      -0.371221       -10.1014
  60   1.0000      -0.364175        -9.9097
  61   1.0000      -0.361510        -9.8372
  62   1.0000      -0.358789        -9.7631
  63   1.0000      -0.358723        -9.7614
  64   1.0000      -0.350479        -9.5370
  65   1.0000      -0.342191        -9.3115
  66   1.0000      -0.331092        -9.0095
  67   1.0000      -0.329759        -8.9732
  68   1.0000      -0.326105        -8.8738
  69   1.0000      -0.324824        -8.8389
  70   1.0000      -0.324457        -8.8289
  71   1.0000      -0.318800        -8.6750
  72   1.0000      -0.310058        -8.4371
  73   1.0000      -0.265779        -7.2322
  74   1.0000      -0.264824        -7.2062
  75   1.0000      -0.256485        -6.9793
  76   1.0000      -0.242220        -6.5911
  77   1.0000      -0.205988        -5.6052
  78   0.0000      -0.083775        -2.2796
  79   0.0000      -0.047801        -1.3007
  80   0.0000      -0.013516        -0.3678
  81   0.0000      -0.006575        -0.1789
  82   0.0000       0.007374         0.2007

MULLIKEN ATOMIC CHARGES AND SPIN POPULATIONS
--------------------------------------------
   0 C :   -0.363869    0.014694
   1 C :   -0.332830    1.022025
   2 C :    0.486713   -0.082570
   3 C :   -0.417698    0.053156
   4 C :    0.520846   -0.034189
   5 C :    0.217675    0.057293
   6 C :   -0.219162   -0.077921
   7 H :    0.136470    0.011389
   8 H :    0.128797    0.021602
   9 C :   -0.373044    0.029562
  10 H :    0.152736   -0.001276
  11 H :    0.152808   -0.001276
  12 C :   -0.265888    0.000906
  13 H :    0.144149    0.000053
  14 H :    0.144096    0.000053
  15 C :   -0.266131    0.000123
  16 H :    0.144727   -0.000013
  17 H :    0.144772   -0.000013
  18 C :   -0.510369    0.000126
  19 H :    0.160191   -0.000010
  20 H :    0.160179   -0.000010
  21 C :   -0.341715    0.006814
  22 H :    0.155331    0.001654
  23 H :    0.155249    0.001650
  24 C :   -0.274424    0.000027
  25 H :    0.142222    0.000165
  26 H :    0.142241    0.000165
  27 C :   -0.266664    0.000112
  28 H :    0.145070   -0.000016
  29 H :    0.145037   -0.000016
  30 C :   -0.511514   -0.000032
  31 H :    0.160036    0.000001
  32 H :    0.160048    0.000001
  33 C :   -0.311166   -0.019119
  34 H :    0.145434    0.000022
  35 H :    0.145028   -0.000009
  36 C :    0.590568    0.003921
  37 C :   -0.281817   -0.004628
  38 C :   -0.098652    0.002395
  39 C :   -0.125466   -0.005076
  40 C :   -0.101807    0.002398
  41 C :   -0.275604   -0.004659
  42 H :    0.106916    0.000283
  43 H :    0.105818   -0.000116
  44 H :    0.119678    0.000238
  45 H :    0.119033    0.000237
  46 H :    0.105955   -0.000116
Sum of atomic charges         :    0.0000000

LOEWDIN ATOMIC CHARGES AND SPIN POPULATIONS
-------------------------------------------
   0 C :   -0.029309    0.007141
   1 C :    0.011008    0.840192
   2 C :   -0.091228    0.032056
   3 C :   -0.001779    0.044272
   4 C :   -0.075587   -0.026178
   5 C :   -0.034944    0.047457
   6 C :   -0.060871    0.024984
   7 H :    0.060368    0.007945
   8 H :    0.059302    0.015692
   9 C :   -0.050370    0.018093
  10 H :    0.055682   -0.001086
  11 H :    0.055688   -0.001089
  12 C :   -0.079437    0.000401
  13 H :    0.044788    0.000046
  14 H :    0.044774    0.000046
  15 C :   -0.090083    0.000248
  16 H :    0.040926   -0.000004
  17 H :    0.040924   -0.000004
  18 C :   -0.078429    0.000161
  19 H :    0.034045   -0.000004
  20 H :    0.034049   -0.000004
  21 C :   -0.044333    0.006225
  22 H :    0.059474    0.001461
  23 H :    0.059480    0.001460
  24 C :   -0.079998    0.000470
  25 H :    0.044419    0.000087
  26 H :    0.044424    0.000087
  27 C :   -0.090294    0.000397
  28 H :    0.040924    0.000005
  29 H :    0.040924    0.000005
  30 C :   -0.078804    0.000001
  31 H :    0.034055    0.000002
  32 H :    0.034052    0.000002
  33 C :   -0.040188   -0.014251
  34 H :    0.031614    0.000025
  35 H :    0.031645   -0.000006
  36 C :   -0.071069    0.002087
  37 C :   -0.016859   -0.003689
  38 C :   -0.043324    0.001474
  39 C :   -0.044689   -0.003965
  40 C :   -0.043665    0.001472
  41 C :   -0.017365   -0.003680
  42 H :    0.048809   -0.000029
  43 H :    0.049982    0.000011
  44 H :    0.055784   -0.000014
  45 H :    0.055401   -0.000014
  46 H :    0.050082    0.000012

  Mayer bond orders larger than 0.100000
B(  0-C ,  4-C ) :   0.8074 B(  0-C ,  5-C ) :   0.1076 B(  0-C , 33-C ) :   2.5123
B(  1-C ,  2-C ) :   1.2405 B(  1-C ,  3-C ) :   0.1163 B(  1-C ,  5-C ) :   0.1150
B(  1-C ,  6-C ) :   1.3973 B(  2-C ,  3-C ) :   1.4263 B(  2-C ,  9-C ) :   0.9090
B(  3-C ,  4-C ) :   1.4544 B(  3-C ,  7-H ) :   0.9828 B(  4-C ,  5-C ) :   1.4071
B(  4-C ,  6-C ) :   0.1004 B(  5-C ,  6-C ) :   1.3846 B(  5-C , 21-C ) :   0.9761
B(  6-C ,  8-H ) :   0.9717 B(  9-C , 10-H ) :   0.9676 B(  9-C , 11-H ) :   0.9675
B(  9-C , 12-C ) :   1.0175 B( 12-C , 13-H ) :   0.9631 B( 12-C , 14-H ) :   0.9631
B( 12-C , 15-C ) :   0.9838 B( 15-C , 16-H ) :   0.9725 B( 15-C , 17-H ) :   0.9725
B( 15-C , 18-C ) :   0.9557 B( 18-C , 19-H ) :   0.9721 B( 18-C , 20-H ) :   0.9721
B( 18-C , 34-H ) :   0.9682 B( 21-C , 22-H ) :   0.9537 B( 21-C , 23-H ) :   0.9539
B( 21-C , 24-C ) :   1.0150 B( 24-C , 25-H ) :   0.9626 B( 24-C , 26-H ) :   0.9627
B( 24-C , 27-C ) :   0.9888 B( 27-C , 28-H ) :   0.9719 B( 27-C , 29-H ) :   0.9719
B( 27-C , 30-C ) :   0.9545 B( 30-C , 31-H ) :   0.9729 B( 30-C , 32-H ) :   0.9729
B( 30-C , 35-H ) :   0.9675 B( 33-C , 36-C ) :   1.0046 B( 36-C , 37-C ) :   1.3896
B( 36-C , 41-C ) :   1.3853 B( 37-C , 38-C ) :   1.4760 B( 37-C , 44-H ) :   0.9820
B( 38-C , 39-C ) :   1.4525 B( 38-C , 46-H ) :   0.9761 B( 39-C , 40-C ) :   1.4553
B( 39-C , 42-H ) :   0.9659 B( 40-C , 41-C ) :   1.4759 B( 40-C , 43-H ) :   0.9771
B( 41-C , 45-H ) :   0.9800

FINAL SINGLE POINT ENERGY      -852.824507790978

DIPOLE MOMENT
-------------
                                X             Y             Z
Electronic contribution:     15.89554      -0.25136       0.01212
Nuclear contribution   :    -15.66210       0.24861      -0.01201
                        -----------------------------------------
Total Dipole Moment    :      0.23344      -0.00275       0.00011
                        -----------------------------------------
Magnitude (a.u.)       :      0.23346
Magnitude (Debye)      :      0.59340

Rotational constants in cm-1:     0.007003     0.004905     0.002897
Rotational constants in MHz :   209.949858   147.058750    86.853095

CHEMICAL SHIELDING SUMMARY (ppm)  --  Orbital contribution
----------------------------------------------------------

  Nucleus  Element    Isotropic     Anisotropy
  -------  -------  ------------   ------------
      7       H           93.369          8.609
      8       H            4.799         23.295
     10       H            9.204         34.048
     11       H            9.234         34.067
     13       H           99.301         11.715
     14       H           99.193         11.745
     16       H           -9.060         27.382
     17       H           -8.949         27.368
     19       H           47.325         10.031
     20       H           47.493          9.972
     22       H           95.348         26.156
     23       H           95.354         26.192
     25       H           42.674         26.768
     26       H           42.676         26.763
     28       H           56.873         16.304
     29       H           56.893         16.295
     31       H            1.338         20.732
     32       H            1.335         20.740
     34       H          -83.962       -103.032
     35       H          -47.140         26.473
     42       H         -115.806       -167.976
     43       H          -51.246          0.514
     44       H           85.271         18.843
     45       H           82.249         21.074
     46       H          -47.909          1.987

                             ****ORCA TERMINATED NORMALLY****
TOTAL RUN TIME: 0 days 1 hours 14 minutes 52 seconds 599 msec
