                         Program Version 5.0.4 -  RELEASE  -
|  1> ! B3LYP EPR-II AUTOAUX
|  2> %pal nprocs 16 end
|  3> *XYZFile 0 2 opt.xyz
|  4> %EPRNMR
|  5>         GTENSOR   TRUE
|  6>         NUCLEI    = ALL H {SHIFT, AISO, ADIP, AORB}
|  7>         ORI       CenterOfElCharge
|  8> END
|  9>
| 10>                          ****END OF INPUT****

CARTESIAN COORDINATES (ANGSTROEM)
---------------------------------
  C      2.831806   -0.006236   -0.008272
  C     -1.314139   -0.014773   -0.012929
  C     -0.703841   -1.259958   -0.014279
  C      0.699293   -1.203568   -0.012429
  C      1.402358    0.023007   -0.009542
  C      0.708612    1.263431   -0.008102
  C     -0.699666    1.217589   -0.009942
  H      1.283513   -2.125515   -0.013363
  H     -1.285093    2.138713   -0.009038
  C     -1.509688   -2.548043   -0.017242
  H     -2.182378   -2.530206   -0.894243
  H     -2.180594   -2.535322    0.861245
  C     -0.708611   -3.852555   -0.021718
  H     -0.045377   -3.880501   -0.905977
  H     -0.045441   -3.886600    0.862377
  C     -1.603186   -5.097748   -0.025923
  H     -2.269586   -5.070311    0.856270
  H     -2.268554   -5.065066   -0.908715
  C     -0.811642   -6.407882   -0.029365
  H     -0.163127   -6.486668    0.860305
  H     -0.161649   -6.481086   -0.918435
  C      1.483960    2.566701   -0.004836
  H      2.159953    2.562804    0.870276
  H      2.160515    2.566853   -0.879537
  C      0.662999    3.858831   -0.002137
  H      0.000591    3.884733   -0.887173
  H     -0.000881    3.880108    0.881917
  C      1.540854    5.116159    0.001806
  H      2.206133    5.092323    0.884894
  H      2.207958    5.096581   -0.880007
  C      0.732381    6.415841    0.004122
  H      0.081081    6.481192    0.892854
  H      0.083265    6.485731   -0.885860
  C      4.053310   -0.041189   -0.009378
  H     -1.480462   -7.283854   -0.032687
  H      1.389551    7.300598    0.007195
  C      5.481187   -0.085650   -0.008586
  C      6.162322   -1.322563   -0.012255
  C      7.556386   -1.361278   -0.011394
  C      8.297343   -0.174069   -0.006934
  C      7.632552    1.057518   -0.003328
  C      6.238850    1.105969   -0.004137
  H      9.389310   -0.208771   -0.006270
  H      8.204901    1.988374    0.000175
  H      5.582883   -2.247731   -0.015759
  H      5.718665    2.065740   -0.001296
  H      8.069533   -2.326054   -0.014261

 Total Charge           Charge          ....    0
 Multiplicity           Mult            ....    2
 Number of Electrons    NEL             ....  157
 Basis Dimension        Dim             ....  549

ORBITAL ENERGIES
----------------
                 SPIN UP ORBITALS
  NO   OCC          E(Eh)            E(eV)
   0   1.0000     -10.225237      -278.2428
   1   1.0000     -10.216669      -278.0097
   2   1.0000     -10.213512      -277.9238
   3   1.0000     -10.212811      -277.9047
   4   1.0000     -10.209365      -277.8110
   5   1.0000     -10.202977      -277.6371
   6   1.0000     -10.202801      -277.6323
   7   1.0000     -10.202570      -277.6261
   8   1.0000     -10.202084      -277.6128
   9   1.0000     -10.201820      -277.6056
  10   1.0000     -10.201160      -277.5877
  11   1.0000     -10.198895      -277.5260
  12   1.0000     -10.198595      -277.5179
  13   1.0000     -10.196326      -277.4561
  14   1.0000     -10.190966      -277.3103
  15   1.0000     -10.187963      -277.2286
  16   1.0000     -10.183394      -277.1043
  17   1.0000     -10.183146      -277.0975
  18   1.0000     -10.183120      -277.0968
  19   1.0000     -10.182902      -277.0908
  20   1.0000     -10.173788      -276.8429
  21   1.0000     -10.173721      -276.8410
  22   1.0000      -0.870125       -23.6773
  23   1.0000      -0.860924       -23.4269
  24   1.0000      -0.812177       -22.1005
  25   1.0000      -0.793871       -21.6023
  26   1.0000      -0.786858       -21.4115
  27   1.0000      -0.768773       -20.9194
  28   1.0000      -0.759904       -20.6781
  29   1.0000      -0.749089       -20.3838
  30   1.0000      -0.730471       -19.8771
  31   1.0000      -0.712858       -19.3979
  32   1.0000      -0.697013       -18.9667
  33   1.0000      -0.651462       -17.7272
  34   1.0000      -0.630702       -17.1623
  35   1.0000      -0.616867       -16.7858
  36   1.0000      -0.607546       -16.5322
  37   1.0000      -0.605563       -16.4782
  38   1.0000      -0.581497       -15.8233
  39   1.0000      -0.576265       -15.6810
  40   1.0000      -0.562817       -15.3150
  41   1.0000      -0.535885       -14.5822
  42   1.0000      -0.506465       -13.7816
  43   1.0000      -0.479124       -13.0376
  44   1.0000      -0.470974       -12.8159
  45   1.0000      -0.470858       -12.8127
  46   1.0000      -0.469946       -12.7879
  47   1.0000      -0.454829       -12.3765
  48   1.0000      -0.441371       -12.0103
  49   1.0000      -0.435957       -11.8630
  50   1.0000      -0.426775       -11.6131
  51   1.0000      -0.423329       -11.5194
  52   1.0000      -0.422687       -11.5019
  53   1.0000      -0.422269       -11.4905
  54   1.0000      -0.416929       -11.3452
  55   1.0000      -0.412990       -11.2380
  56   1.0000      -0.411278       -11.1914
  57   1.0000      -0.381020       -10.3681
  58   1.0000      -0.377517       -10.2728
  59   1.0000      -0.372404       -10.1336
  60   1.0000      -0.365110        -9.9352
  61   1.0000      -0.363728        -9.8975
  62   1.0000      -0.359273        -9.7763
  63   1.0000      -0.356817        -9.7095
  64   1.0000      -0.349647        -9.5144
  65   1.0000      -0.341133        -9.2827
  66   1.0000      -0.332730        -9.0541
  67   1.0000      -0.330955        -9.0057
  68   1.0000      -0.326084        -8.8732
  69   1.0000      -0.324093        -8.8190
  70   1.0000      -0.322197        -8.7674
  71   1.0000      -0.321601        -8.7512
  72   1.0000      -0.312527        -8.5043
  73   1.0000      -0.268552        -7.3077
  74   1.0000      -0.266583        -7.2541
  75   1.0000      -0.257050        -6.9947
  76   1.0000      -0.242221        -6.5912
  77   1.0000      -0.237117        -6.4523
  78   1.0000      -0.209984        -5.7140
  79   0.0000      -0.051432        -1.3995
  80   0.0000      -0.012324        -0.3353
  81   0.0000      -0.005344        -0.1454
  82   0.0000       0.003519         0.0958
  83   0.0000       0.015950         0.4340

                 SPIN DOWN ORBITALS
  NO   OCC          E(Eh)            E(eV)
   0   1.0000     -10.225173      -278.2411
   1   1.0000     -10.217262      -278.0258
   2   1.0000     -10.211452      -277.8677
   3   1.0000     -10.209450      -277.8132
   4   1.0000     -10.203025      -277.6384
   5   1.0000     -10.202848      -277.6336
   6   1.0000     -10.202627      -277.6276
   7   1.0000     -10.202070      -277.6124
   8   1.0000     -10.201820      -277.6056
   9   1.0000     -10.199954      -277.5548
  10   1.0000     -10.199232      -277.5352
  11   1.0000     -10.198568      -277.5172
  12   1.0000     -10.198328      -277.5106
  13   1.0000     -10.196413      -277.4585
  14   1.0000     -10.190507      -277.2978
  15   1.0000     -10.187833      -277.2250
  16   1.0000     -10.183391      -277.1041
  17   1.0000     -10.183140      -277.0973
  18   1.0000     -10.183112      -277.0966
  19   1.0000     -10.182894      -277.0906
  20   1.0000     -10.173784      -276.8427
  21   1.0000     -10.173722      -276.8410
  22   1.0000      -0.864526       -23.5249
  23   1.0000      -0.860574       -23.4174
  24   1.0000      -0.810349       -22.0507
  25   1.0000      -0.793737       -21.5987
  26   1.0000      -0.784680       -21.3522
  27   1.0000      -0.766720       -20.8635
  28   1.0000      -0.756166       -20.5763
  29   1.0000      -0.749152       -20.3855
  30   1.0000      -0.728652       -19.8276
  31   1.0000      -0.710310       -19.3285
  32   1.0000      -0.695117       -18.9151
  33   1.0000      -0.650290       -17.6953
  34   1.0000      -0.628728       -17.1086
  35   1.0000      -0.614867       -16.7314
  36   1.0000      -0.607558       -16.5325
  37   1.0000      -0.600528       -16.3412
  38   1.0000      -0.579715       -15.7748
  39   1.0000      -0.571527       -15.5520
  40   1.0000      -0.560731       -15.2583
  41   1.0000      -0.535132       -14.5617
  42   1.0000      -0.504992       -13.7415
  43   1.0000      -0.478719       -13.0266
  44   1.0000      -0.470875       -12.8132
  45   1.0000      -0.469870       -12.7858
  46   1.0000      -0.465827       -12.6758
  47   1.0000      -0.454761       -12.3747
  48   1.0000      -0.435767       -11.8578
  49   1.0000      -0.433948       -11.8083
  50   1.0000      -0.424396       -11.5484
  51   1.0000      -0.423308       -11.5188
  52   1.0000      -0.421810       -11.4780
  53   1.0000      -0.421158       -11.4603
  54   1.0000      -0.416818       -11.3422
  55   1.0000      -0.411089       -11.1863
  56   1.0000      -0.406467       -11.0605
  57   1.0000      -0.381093       -10.3701
  58   1.0000      -0.373655       -10.1677
  59   1.0000      -0.371433       -10.1072
  60   1.0000      -0.364089        -9.9074
  61   1.0000      -0.361265        -9.8305
  62   1.0000      -0.358470        -9.7545
  63   1.0000      -0.356627        -9.7043
  64   1.0000      -0.349649        -9.5144
  65   1.0000      -0.340677        -9.2703
  66   1.0000      -0.332102        -9.0370
  67   1.0000      -0.329706        -8.9718
  68   1.0000      -0.325517        -8.8578
  69   1.0000      -0.323833        -8.8119
  70   1.0000      -0.322120        -8.7653
  71   1.0000      -0.319941        -8.7060
  72   1.0000      -0.310936        -8.4610
  73   1.0000      -0.266254        -7.2451
  74   1.0000      -0.265605        -7.2275
  75   1.0000      -0.257227        -6.9995
  76   1.0000      -0.242295        -6.5932
  77   1.0000      -0.206307        -5.6139
  78   0.0000      -0.083773        -2.2796
  79   0.0000      -0.047365        -1.2889
  80   0.0000      -0.012472        -0.3394
  81   0.0000      -0.005655        -0.1539
  82   0.0000       0.008202         0.2232

MULLIKEN ATOMIC CHARGES AND SPIN POPULATIONS
--------------------------------------------
   0 C :   -0.364473    0.014049
   1 C :   -0.336898    1.021130
   2 C :    0.500507   -0.082049
   3 C :   -0.424131    0.051884
   4 C :    0.524533   -0.033313
   5 C :    0.224765    0.056374
   6 C :   -0.221200   -0.078113
   7 H :    0.134849    0.011761
   8 H :    0.126873    0.022672
   9 C :   -0.371434    0.029964
  10 H :    0.150019   -0.001321
  11 H :    0.150143   -0.001322
  12 C :   -0.259999    0.000943
  13 H :    0.141212    0.000053
  14 H :    0.141065    0.000053
  15 C :   -0.257362    0.000135
  16 H :    0.141697   -0.000013
  17 H :    0.141758   -0.000013
  18 C :   -0.507459    0.000122
  19 H :    0.157999   -0.000011
  20 H :    0.157993   -0.000011
  21 C :   -0.338032    0.006660
  22 H :    0.152607    0.001702
  23 H :    0.152585    0.001697
  24 C :   -0.269490    0.000018
  25 H :    0.139222    0.000171
  26 H :    0.139281    0.000171
  27 C :   -0.257732    0.000120
  28 H :    0.142014   -0.000016
  29 H :    0.141998   -0.000017
  30 C :   -0.508730   -0.000030
  31 H :    0.157879    0.000001
  32 H :    0.157888    0.000001
  33 C :   -0.313249   -0.018462
  34 H :    0.143773    0.000024
  35 H :    0.143394   -0.000009
  36 C :    0.597587    0.003632
  37 C :   -0.282982   -0.004328
  38 C :   -0.097072    0.002153
  39 C :   -0.123472   -0.004764
  40 C :   -0.100545    0.002155
  41 C :   -0.276610   -0.004356
  42 H :    0.105131    0.000265
  43 H :    0.104264   -0.000101
  44 H :    0.118046    0.000221
  45 H :    0.117470    0.000219
  46 H :    0.104316   -0.000101
Sum of atomic charges         :   -0.0000000

LOEWDIN ATOMIC CHARGES AND SPIN POPULATIONS
-------------------------------------------
   0 C :   -0.028486    0.006711
   1 C :    0.010870    0.837185
   2 C :   -0.093068    0.033278
   3 C :   -0.002834    0.043551
   4 C :   -0.076027   -0.025714
   5 C :   -0.036493    0.046802
   6 C :   -0.062684    0.026223
   7 H :    0.062732    0.008108
   8 H :    0.062035    0.016549
   9 C :   -0.054726    0.018393
  10 H :    0.058122   -0.001119
  11 H :    0.058137   -0.001125
  12 C :   -0.084501    0.000441
  13 H :    0.047268    0.000047
  14 H :    0.047231    0.000047
  15 C :   -0.096081    0.000252
  16 H :    0.043557   -0.000005
  17 H :    0.043555   -0.000005
  18 C :   -0.084677    0.000160
  19 H :    0.036413   -0.000004
  20 H :    0.036419   -0.000004
  21 C :   -0.048592    0.006078
  22 H :    0.062017    0.001488
  23 H :    0.062029    0.001486
  24 C :   -0.084995    0.000487
  25 H :    0.046853    0.000094
  26 H :    0.046867    0.000093
  27 C :   -0.096265    0.000413
  28 H :    0.043533    0.000005
  29 H :    0.043535    0.000005
  30 C :   -0.085014    0.000002
  31 H :    0.036429    0.000002
  32 H :    0.036427    0.000002
  33 C :   -0.039996   -0.013773
  34 H :    0.033883    0.000027
  35 H :    0.033903   -0.000006
  36 C :   -0.073066    0.001896
  37 C :   -0.018576   -0.003467
  38 C :   -0.045769    0.001307
  39 C :   -0.046990   -0.003733
  40 C :   -0.046174    0.001304
  41 C :   -0.018994   -0.003455
  42 H :    0.051290   -0.000025
  43 H :    0.052455    0.000010
  44 H :    0.058121   -0.000011
  45 H :    0.057786   -0.000011
  46 H :    0.052540    0.000011

  Mayer bond orders larger than 0.100000
B(  0-C ,  4-C ) :   0.8079 B(  0-C ,  5-C ) :   0.1092 B(  0-C , 33-C ) :   2.5112
B(  1-C ,  2-C ) :   1.2374 B(  1-C ,  3-C ) :   0.1179 B(  1-C ,  5-C ) :   0.1190
B(  1-C ,  6-C ) :   1.3985 B(  2-C ,  3-C ) :   1.4261 B(  2-C ,  9-C ) :   0.9081
B(  3-C ,  4-C ) :   1.4582 B(  3-C ,  7-H ) :   0.9839 B(  4-C ,  5-C ) :   1.4109
B(  4-C ,  6-C ) :   0.1034 B(  4-C , 33-C ) :   0.1009 B(  5-C ,  6-C ) :   1.3836
B(  5-C , 21-C ) :   0.9775 B(  6-C ,  8-H ) :   0.9724 B(  9-C , 10-H ) :   0.9676
B(  9-C , 11-H ) :   0.9675 B(  9-C , 12-C ) :   1.0188 B( 12-C , 13-H ) :   0.9624
B( 12-C , 14-H ) :   0.9622 B( 12-C , 15-C ) :   0.9856 B( 15-C , 16-H ) :   0.9719
B( 15-C , 17-H ) :   0.9719 B( 15-C , 18-C ) :   0.9554 B( 18-C , 19-H ) :   0.9720
B( 18-C , 20-H ) :   0.9720 B( 18-C , 34-H ) :   0.9680 B( 21-C , 22-H ) :   0.9533
B( 21-C , 23-H ) :   0.9536 B( 21-C , 24-C ) :   1.0162 B( 24-C , 25-H ) :   0.9618
B( 24-C , 26-H ) :   0.9619 B( 24-C , 27-C ) :   0.9910 B( 27-C , 28-H ) :   0.9713
B( 27-C , 29-H ) :   0.9713 B( 27-C , 30-C ) :   0.9543 B( 30-C , 31-H ) :   0.9729
B( 30-C , 32-H ) :   0.9729 B( 30-C , 35-H ) :   0.9673 B( 33-C , 36-C ) :   1.0060
B( 36-C , 37-C ) :   1.3903 B( 36-C , 38-C ) :   0.1003 B( 36-C , 41-C ) :   1.3859
B( 37-C , 38-C ) :   1.4756 B( 37-C , 39-C ) :   0.1008 B( 37-C , 44-H ) :   0.9828
B( 38-C , 39-C ) :   1.4525 B( 38-C , 46-H ) :   0.9767 B( 39-C , 40-C ) :   1.4550
B( 39-C , 41-C ) :   0.1021 B( 39-C , 42-H ) :   0.9664 B( 40-C , 41-C ) :   1.4759
B( 40-C , 43-H ) :   0.9777 B( 41-C , 45-H ) :   0.9807

FINAL SINGLE POINT ENERGY      -852.823366538194

DIPOLE MOMENT
-------------
                                X             Y             Z
Electronic contribution:     15.86118      -0.23057       0.01505
Nuclear contribution   :    -15.62451       0.23028      -0.01489
                        -----------------------------------------
Total Dipole Moment    :      0.23667      -0.00028       0.00016
                        -----------------------------------------
Magnitude (a.u.)       :      0.23667
Magnitude (Debye)      :      0.60156

Rotational constants in cm-1:     0.007056     0.004915     0.002910
Rotational constants in MHz :   211.539302   147.336779    87.224688

CHEMICAL SHIELDING SUMMARY (ppm)  --  Orbital contribution
----------------------------------------------------------

  Nucleus  Element    Isotropic     Anisotropy
  -------  -------  ------------   ------------
      7       H           93.487          8.902
      8       H            5.462         24.259
     10       H            9.468         33.792
     11       H            9.572         33.845
     13       H           98.928         11.566
     14       H           98.873         11.542
     16       H           -8.797         27.182
     17       H           -8.739         27.159
     19       H           46.151         10.276
     20       H           46.245         10.256
     22       H           95.537         26.164
     23       H           95.523         26.170
     25       H           42.620         26.677
     26       H           42.639         26.666
     28       H           57.063         16.229
     29       H           57.073         16.212
     31       H            0.634         20.916
     32       H            0.629         20.927
     34       H          -83.474       -101.452
     35       H          -46.637         25.911
     42       H         -114.366       -167.017
     43       H          -50.108          0.757
     44       H           84.753         18.875
     45       H           82.323         21.215
     46       H          -47.243          2.100

                             ****ORCA TERMINATED NORMALLY****
TOTAL RUN TIME: 0 days 1 hours 13 minutes 44 seconds 566 msec
