                         Program Version 5.0.4 -  RELEASE  -
|  1> ! B3LYP EPR-II AUTOAUX
|  2> %pal nprocs 16 end
|  3> *XYZFile 0 2 opt.xyz
|  4> %EPRNMR
|  5>         GTENSOR   TRUE
|  6>         NUCLEI    = ALL H {SHIFT, AISO, ADIP, AORB}
|  7>         ORI       GIAO
|  8> END
|  9>
| 10>                          ****END OF INPUT****

CARTESIAN COORDINATES (ANGSTROEM)
---------------------------------
  C      2.831806   -0.006236   -0.008272
  C     -1.314139   -0.014773   -0.012929
  C     -0.703841   -1.259958   -0.014279
  C      0.699293   -1.203568   -0.012429
  C      1.402358    0.023007   -0.009542
  C      0.708612    1.263431   -0.008102
  C     -0.699666    1.217589   -0.009942
  H      1.283513   -2.125515   -0.013363
  H     -1.285093    2.138713   -0.009038
  C     -1.509688   -2.548043   -0.017242
  H     -2.182378   -2.530206   -0.894243
  H     -2.180594   -2.535322    0.861245
  C     -0.708611   -3.852555   -0.021718
  H     -0.045377   -3.880501   -0.905977
  H     -0.045441   -3.886600    0.862377
  C     -1.603186   -5.097748   -0.025923
  H     -2.269586   -5.070311    0.856270
  H     -2.268554   -5.065066   -0.908715
  C     -0.811642   -6.407882   -0.029365
  H     -0.163127   -6.486668    0.860305
  H     -0.161649   -6.481086   -0.918435
  C      1.483960    2.566701   -0.004836
  H      2.159953    2.562804    0.870276
  H      2.160515    2.566853   -0.879537
  C      0.662999    3.858831   -0.002137
  H      0.000591    3.884733   -0.887173
  H     -0.000881    3.880108    0.881917
  C      1.540854    5.116159    0.001806
  H      2.206133    5.092323    0.884894
  H      2.207958    5.096581   -0.880007
  C      0.732381    6.415841    0.004122
  H      0.081081    6.481192    0.892854
  H      0.083265    6.485731   -0.885860
  C      4.053310   -0.041189   -0.009378
  H     -1.480462   -7.283854   -0.032687
  H      1.389551    7.300598    0.007195
  C      5.481187   -0.085650   -0.008586
  C      6.162322   -1.322563   -0.012255
  C      7.556386   -1.361278   -0.011394
  C      8.297343   -0.174069   -0.006934
  C      7.632552    1.057518   -0.003328
  C      6.238850    1.105969   -0.004137
  H      9.389310   -0.208771   -0.006270
  H      8.204901    1.988374    0.000175
  H      5.582883   -2.247731   -0.015759
  H      5.718665    2.065740   -0.001296
  H      8.069533   -2.326054   -0.014261

 Total Charge           Charge          ....    0
 Multiplicity           Mult            ....    2
 Number of Electrons    NEL             ....  157
 Basis Dimension        Dim             ....  549

ORBITAL ENERGIES
----------------
                 SPIN UP ORBITALS
  NO   OCC          E(Eh)            E(eV)
   0   1.0000     -10.225027      -278.2371
   1   1.0000     -10.216630      -278.0086
   2   1.0000     -10.213613      -277.9265
   3   1.0000     -10.212727      -277.9024
   4   1.0000     -10.209433      -277.8128
   5   1.0000     -10.202984      -277.6373
   6   1.0000     -10.202835      -277.6333
   7   1.0000     -10.202645      -277.6281
   8   1.0000     -10.202152      -277.6147
   9   1.0000     -10.201949      -277.6091
  10   1.0000     -10.201065      -277.5851
  11   1.0000     -10.198887      -277.5258
  12   1.0000     -10.198560      -277.5169
  13   1.0000     -10.196232      -277.4536
  14   1.0000     -10.190986      -277.3108
  15   1.0000     -10.187925      -277.2275
  16   1.0000     -10.183404      -277.1045
  17   1.0000     -10.183159      -277.0978
  18   1.0000     -10.183114      -277.0966
  19   1.0000     -10.182897      -277.0907
  20   1.0000     -10.173804      -276.8433
  21   1.0000     -10.173738      -276.8415
  22   1.0000      -0.870114       -23.6770
  23   1.0000      -0.860915       -23.4267
  24   1.0000      -0.812175       -22.1004
  25   1.0000      -0.793865       -21.6022
  26   1.0000      -0.786846       -21.4112
  27   1.0000      -0.768772       -20.9193
  28   1.0000      -0.759895       -20.6778
  29   1.0000      -0.749100       -20.3840
  30   1.0000      -0.730472       -19.8772
  31   1.0000      -0.712836       -19.3973
  32   1.0000      -0.697009       -18.9666
  33   1.0000      -0.651461       -17.7271
  34   1.0000      -0.630693       -17.1620
  35   1.0000      -0.616867       -16.7858
  36   1.0000      -0.607545       -16.5321
  37   1.0000      -0.605558       -16.4781
  38   1.0000      -0.581489       -15.8231
  39   1.0000      -0.576266       -15.6810
  40   1.0000      -0.562810       -15.3148
  41   1.0000      -0.535867       -14.5817
  42   1.0000      -0.506460       -13.7815
  43   1.0000      -0.479119       -13.0375
  44   1.0000      -0.470975       -12.8159
  45   1.0000      -0.470854       -12.8126
  46   1.0000      -0.469942       -12.7878
  47   1.0000      -0.454834       -12.3767
  48   1.0000      -0.441355       -12.0099
  49   1.0000      -0.435956       -11.8630
  50   1.0000      -0.426767       -11.6129
  51   1.0000      -0.423337       -11.5196
  52   1.0000      -0.422688       -11.5019
  53   1.0000      -0.422266       -11.4905
  54   1.0000      -0.416929       -11.3452
  55   1.0000      -0.412987       -11.2379
  56   1.0000      -0.411277       -11.1914
  57   1.0000      -0.380997       -10.3675
  58   1.0000      -0.377516       -10.2727
  59   1.0000      -0.372400       -10.1335
  60   1.0000      -0.365118        -9.9354
  61   1.0000      -0.363718        -9.8973
  62   1.0000      -0.359292        -9.7768
  63   1.0000      -0.356819        -9.7095
  64   1.0000      -0.349653        -9.5145
  65   1.0000      -0.341126        -9.2825
  66   1.0000      -0.332729        -9.0540
  67   1.0000      -0.330957        -9.0058
  68   1.0000      -0.326088        -8.8733
  69   1.0000      -0.324095        -8.8191
  70   1.0000      -0.322194        -8.7673
  71   1.0000      -0.321594        -8.7510
  72   1.0000      -0.312524        -8.5042
  73   1.0000      -0.268551        -7.3077
  74   1.0000      -0.266533        -7.2527
  75   1.0000      -0.257060        -6.9949
  76   1.0000      -0.242208        -6.5908
  77   1.0000      -0.237151        -6.4532
  78   1.0000      -0.209967        -5.7135
  79   0.0000      -0.051419        -1.3992
  80   0.0000      -0.012330        -0.3355
  81   0.0000      -0.005332        -0.1451
  82   0.0000       0.003521         0.0958
  83   0.0000       0.015963         0.4344

                 SPIN DOWN ORBITALS
  NO   OCC          E(Eh)            E(eV)
   0   1.0000     -10.224965      -278.2354
   1   1.0000     -10.217221      -278.0247
   2   1.0000     -10.211370      -277.8655
   3   1.0000     -10.209516      -277.8151
   4   1.0000     -10.203021      -277.6383
   5   1.0000     -10.202881      -277.6345
   6   1.0000     -10.202708      -277.6298
   7   1.0000     -10.202142      -277.6144
   8   1.0000     -10.201949      -277.6091
   9   1.0000     -10.199861      -277.5523
  10   1.0000     -10.199241      -277.5354
  11   1.0000     -10.198518      -277.5158
  12   1.0000     -10.198411      -277.5129
  13   1.0000     -10.196335      -277.4564
  14   1.0000     -10.190526      -277.2983
  15   1.0000     -10.187795      -277.2240
  16   1.0000     -10.183400      -277.1044
  17   1.0000     -10.183153      -277.0977
  18   1.0000     -10.183106      -277.0964
  19   1.0000     -10.182889      -277.0905
  20   1.0000     -10.173800      -276.8432
  21   1.0000     -10.173738      -276.8415
  22   1.0000      -0.864509       -23.5245
  23   1.0000      -0.860566       -23.4172
  24   1.0000      -0.810349       -22.0507
  25   1.0000      -0.793730       -21.5985
  26   1.0000      -0.784665       -21.3518
  27   1.0000      -0.766721       -20.8635
  28   1.0000      -0.756156       -20.5761
  29   1.0000      -0.749162       -20.3857
  30   1.0000      -0.728652       -19.8276
  31   1.0000      -0.710289       -19.3279
  32   1.0000      -0.695113       -18.9150
  33   1.0000      -0.650288       -17.6952
  34   1.0000      -0.628720       -17.1083
  35   1.0000      -0.614863       -16.7313
  36   1.0000      -0.607557       -16.5325
  37   1.0000      -0.600527       -16.3412
  38   1.0000      -0.579710       -15.7747
  39   1.0000      -0.571526       -15.5520
  40   1.0000      -0.560722       -15.2580
  41   1.0000      -0.535115       -14.5612
  42   1.0000      -0.504987       -13.7414
  43   1.0000      -0.478713       -13.0264
  44   1.0000      -0.470877       -12.8132
  45   1.0000      -0.469866       -12.7857
  46   1.0000      -0.465823       -12.6757
  47   1.0000      -0.454766       -12.3748
  48   1.0000      -0.435767       -11.8578
  49   1.0000      -0.433932       -11.8079
  50   1.0000      -0.424390       -11.5482
  51   1.0000      -0.423315       -11.5190
  52   1.0000      -0.421807       -11.4780
  53   1.0000      -0.421160       -11.4603
  54   1.0000      -0.416819       -11.3422
  55   1.0000      -0.411089       -11.1863
  56   1.0000      -0.406459       -11.0603
  57   1.0000      -0.381068       -10.3694
  58   1.0000      -0.373653       -10.1676
  59   1.0000      -0.371429       -10.1071
  60   1.0000      -0.364095        -9.9075
  61   1.0000      -0.361267        -9.8306
  62   1.0000      -0.358478        -9.7547
  63   1.0000      -0.356629        -9.7044
  64   1.0000      -0.349655        -9.5146
  65   1.0000      -0.340670        -9.2701
  66   1.0000      -0.332101        -9.0369
  67   1.0000      -0.329706        -8.9718
  68   1.0000      -0.325519        -8.8578
  69   1.0000      -0.323835        -8.8120
  70   1.0000      -0.322116        -8.7652
  71   1.0000      -0.319938        -8.7059
  72   1.0000      -0.310931        -8.4609
  73   1.0000      -0.266203        -7.2438
  74   1.0000      -0.265603        -7.2274
  75   1.0000      -0.257236        -6.9998
  76   1.0000      -0.242285        -6.5929
  77   1.0000      -0.206288        -5.6134
  78   0.0000      -0.083808        -2.2805
  79   0.0000      -0.047352        -1.2885
  80   0.0000      -0.012479        -0.3396
  81   0.0000      -0.005645        -0.1536
  82   0.0000       0.008205         0.2233

MULLIKEN ATOMIC CHARGES AND SPIN POPULATIONS
--------------------------------------------
   0 C :   -0.364605    0.013938
   1 C :   -0.336946    1.021117
   2 C :    0.500461   -0.082000
   3 C :   -0.424077    0.051801
   4 C :    0.524542   -0.033248
   5 C :    0.224802    0.056295
   6 C :   -0.221198   -0.078063
   7 H :    0.134842    0.011771
   8 H :    0.126873    0.022667
   9 C :   -0.371438    0.029954
  10 H :    0.150020   -0.001319
  11 H :    0.150145   -0.001320
  12 C :   -0.259995    0.000944
  13 H :    0.141215    0.000053
  14 H :    0.141067    0.000054
  15 C :   -0.257366    0.000134
  16 H :    0.141697   -0.000013
  17 H :    0.141759   -0.000013
  18 C :   -0.507463    0.000122
  19 H :    0.158001   -0.000011
  20 H :    0.157995   -0.000011
  21 C :   -0.338017    0.006675
  22 H :    0.152605    0.001698
  23 H :    0.152583    0.001693
  24 C :   -0.269493    0.000016
  25 H :    0.139221    0.000171
  26 H :    0.139279    0.000172
  27 C :   -0.257734    0.000120
  28 H :    0.142016   -0.000016
  29 H :    0.142000   -0.000017
  30 C :   -0.508739   -0.000030
  31 H :    0.157881    0.000001
  32 H :    0.157890    0.000001
  33 C :   -0.313136   -0.018353
  34 H :    0.143775    0.000024
  35 H :    0.143397   -0.000009
  36 C :    0.597706    0.003577
  37 C :   -0.282975   -0.004273
  38 C :   -0.097136    0.002106
  39 C :   -0.123574   -0.004710
  40 C :   -0.100574    0.002108
  41 C :   -0.276569   -0.004301
  42 H :    0.105155    0.000261
  43 H :    0.104274   -0.000097
  44 H :    0.118044    0.000216
  45 H :    0.117463    0.000214
  46 H :    0.104332   -0.000097
Sum of atomic charges         :   -0.0000000

LOEWDIN ATOMIC CHARGES AND SPIN POPULATIONS
-------------------------------------------
   0 C :   -0.028569    0.006636
   1 C :    0.010822    0.837181
   2 C :   -0.093104    0.033310
   3 C :   -0.002795    0.043494
   4 C :   -0.076027   -0.025678
   5 C :   -0.036456    0.046748
   6 C :   -0.062682    0.026251
   7 H :    0.062730    0.008110
   8 H :    0.062035    0.016548
   9 C :   -0.054728    0.018390
  10 H :    0.058122   -0.001117
  11 H :    0.058138   -0.001124
  12 C :   -0.084498    0.000442
  13 H :    0.047269    0.000047
  14 H :    0.047232    0.000047
  15 C :   -0.096083    0.000252
  16 H :    0.043557   -0.000005
  17 H :    0.043555   -0.000005
  18 C :   -0.084679    0.000160
  19 H :    0.036414   -0.000004
  20 H :    0.036420   -0.000004
  21 C :   -0.048587    0.006083
  22 H :    0.062016    0.001485
  23 H :    0.062028    0.001484
  24 C :   -0.084997    0.000486
  25 H :    0.046852    0.000094
  26 H :    0.046866    0.000094
  27 C :   -0.096266    0.000413
  28 H :    0.043534    0.000005
  29 H :    0.043536    0.000005
  30 C :   -0.085019    0.000002
  31 H :    0.036430    0.000002
  32 H :    0.036428    0.000002
  33 C :   -0.039912   -0.013698
  34 H :    0.033884    0.000027
  35 H :    0.033904   -0.000006
  36 C :   -0.072968    0.001864
  37 C :   -0.018568   -0.003429
  38 C :   -0.045821    0.001277
  39 C :   -0.047069   -0.003697
  40 C :   -0.046199    0.001274
  41 C :   -0.018956   -0.003417
  42 H :    0.051300   -0.000026
  43 H :    0.052459    0.000011
  44 H :    0.058120   -0.000012
  45 H :    0.057783   -0.000012
  46 H :    0.052547    0.000011

  Mayer bond orders larger than 0.100000
B(  0-C ,  4-C ) :   0.8079 B(  0-C ,  5-C ) :   0.1093 B(  0-C , 33-C ) :   2.5112
B(  1-C ,  2-C ) :   1.2374 B(  1-C ,  3-C ) :   0.1179 B(  1-C ,  5-C ) :   0.1190
B(  1-C ,  6-C ) :   1.3985 B(  2-C ,  3-C ) :   1.4261 B(  2-C ,  9-C ) :   0.9081
B(  3-C ,  4-C ) :   1.4582 B(  3-C ,  7-H ) :   0.9839 B(  4-C ,  5-C ) :   1.4109
B(  4-C ,  6-C ) :   0.1034 B(  4-C , 33-C ) :   0.1009 B(  5-C ,  6-C ) :   1.3836
B(  5-C , 21-C ) :   0.9775 B(  6-C ,  8-H ) :   0.9724 B(  9-C , 10-H ) :   0.9676
B(  9-C , 11-H ) :   0.9675 B(  9-C , 12-C ) :   1.0188 B( 12-C , 13-H ) :   0.9624
B( 12-C , 14-H ) :   0.9622 B( 12-C , 15-C ) :   0.9856 B( 15-C , 16-H ) :   0.9719
B( 15-C , 17-H ) :   0.9719 B( 15-C , 18-C ) :   0.9554 B( 18-C , 19-H ) :   0.9720
B( 18-C , 20-H ) :   0.9720 B( 18-C , 34-H ) :   0.9680 B( 21-C , 22-H ) :   0.9533
B( 21-C , 23-H ) :   0.9536 B( 21-C , 24-C ) :   1.0162 B( 24-C , 25-H ) :   0.9618
B( 24-C , 26-H ) :   0.9619 B( 24-C , 27-C ) :   0.9910 B( 27-C , 28-H ) :   0.9713
B( 27-C , 29-H ) :   0.9713 B( 27-C , 30-C ) :   0.9543 B( 30-C , 31-H ) :   0.9729
B( 30-C , 32-H ) :   0.9729 B( 30-C , 35-H ) :   0.9673 B( 33-C , 36-C ) :   1.0060
B( 36-C , 37-C ) :   1.3903 B( 36-C , 38-C ) :   0.1003 B( 36-C , 41-C ) :   1.3859
B( 37-C , 38-C ) :   1.4756 B( 37-C , 39-C ) :   0.1008 B( 37-C , 44-H ) :   0.9828
B( 38-C , 39-C ) :   1.4525 B( 38-C , 46-H ) :   0.9767 B( 39-C , 40-C ) :   1.4551
B( 39-C , 41-C ) :   0.1021 B( 39-C , 42-H ) :   0.9664 B( 40-C , 41-C ) :   1.4759
B( 40-C , 43-H ) :   0.9777 B( 41-C , 45-H ) :   0.9807

FINAL SINGLE POINT ENERGY      -852.823369519446

DIPOLE MOMENT
-------------
                                X             Y             Z
Electronic contribution:     15.86119      -0.23044       0.01505
Nuclear contribution   :    -15.62451       0.23028      -0.01489
                        -----------------------------------------
Total Dipole Moment    :      0.23668      -0.00016       0.00016
                        -----------------------------------------
Magnitude (a.u.)       :      0.23668
Magnitude (Debye)      :      0.60159

Rotational constants in cm-1:     0.007056     0.004915     0.002910
Rotational constants in MHz :   211.539302   147.336779    87.224688

CHEMICAL SHIELDING SUMMARY (ppm)  --  Orbital contribution
----------------------------------------------------------

  Nucleus  Element    Isotropic     Anisotropy
  -------  -------  ------------   ------------
      7       H           24.305         12.952
      8       H           24.447          8.592
     10       H           28.776          6.252
     11       H           28.775          6.247
     13       H           29.996          4.771
     14       H           29.993          4.776
     16       H           30.143          6.806
     17       H           30.142          6.810
     19       H           30.698          7.846
     20       H           30.698          7.844
     22       H           28.577          6.211
     23       H           28.578          6.200
     25       H           29.967          4.947
     26       H           29.968          4.945
     28       H           30.064          6.254
     29       H           30.064          6.253
     31       H           30.697          8.185
     32       H           30.697          8.185
     34       H           30.484         10.267
     35       H           30.459         10.236
     42       H           24.325          4.576
     43       H           24.314          5.499
     44       H           24.060          7.899
     45       H           24.034          8.019
     46       H           24.294          5.216

                             ****ORCA TERMINATED NORMALLY****
TOTAL RUN TIME: 0 days 1 hours 14 minutes 50 seconds 292 msec
