                         Program Version 5.0.4 -  RELEASE  -
|  1> ! B3LYP EPR-II AUTOAUX
|  2> %pal nprocs 16 end
|  3> *XYZFile 0 2 opt.xyz
|  4> %EPRNMR
|  5>         GTENSOR   TRUE
|  6>         NUCLEI    = ALL H {SHIFT, AISO, ADIP, AORB}
|  7>         ORI       GIAO
|  8> END
|  9>
| 10>                          ****END OF INPUT****

CARTESIAN COORDINATES (ANGSTROEM)
---------------------------------
  C      2.831806   -0.006236   -0.008272
  C     -1.314139   -0.014773   -0.012929
  C     -0.703841   -1.259958   -0.014279
  C      0.699293   -1.203568   -0.012429
  C      1.402358    0.023007   -0.009542
  C      0.708612    1.263431   -0.008102
  C     -0.699666    1.217589   -0.009942
  H      1.283513   -2.125515   -0.013363
  H     -1.285093    2.138713   -0.009038
  C     -1.509688   -2.548043   -0.017242
  H     -2.182378   -2.530206   -0.894243
  H     -2.180594   -2.535322    0.861245
  C     -0.708611   -3.852555   -0.021718
  H     -0.045377   -3.880501   -0.905977
  H     -0.045441   -3.886600    0.862377
  C     -1.603186   -5.097748   -0.025923
  H     -2.269586   -5.070311    0.856270
  H     -2.268554   -5.065066   -0.908715
  C     -0.811642   -6.407882   -0.029365
  H     -0.163127   -6.486668    0.860305
  H     -0.161649   -6.481086   -0.918435
  C      1.483960    2.566701   -0.004836
  H      2.159953    2.562804    0.870276
  H      2.160515    2.566853   -0.879537
  C      0.662999    3.858831   -0.002137
  H      0.000591    3.884733   -0.887173
  H     -0.000881    3.880108    0.881917
  C      1.540854    5.116159    0.001806
  H      2.206133    5.092323    0.884894
  H      2.207958    5.096581   -0.880007
  C      0.732381    6.415841    0.004122
  H      0.081081    6.481192    0.892854
  H      0.083265    6.485731   -0.885860
  C      4.053310   -0.041189   -0.009378
  H     -1.480462   -7.283854   -0.032687
  H      1.389551    7.300598    0.007195
  C      5.481187   -0.085650   -0.008586
  C      6.162322   -1.322563   -0.012255
  C      7.556386   -1.361278   -0.011394
  C      8.297343   -0.174069   -0.006934
  C      7.632552    1.057518   -0.003328
  C      6.238850    1.105969   -0.004137
  H      9.389310   -0.208771   -0.006270
  H      8.204901    1.988374    0.000175
  H      5.582883   -2.247731   -0.015759
  H      5.718665    2.065740   -0.001296
  H      8.069533   -2.326054   -0.014261

 Total Charge           Charge          ....    0
 Multiplicity           Mult            ....    2
 Number of Electrons    NEL             ....  157
 Basis Dimension        Dim             ....  549

ORBITAL ENERGIES
----------------
                 SPIN UP ORBITALS
  NO   OCC          E(Eh)            E(eV)
   0   1.0000     -10.225228      -278.2426
   1   1.0000     -10.216691      -278.0103
   2   1.0000     -10.213518      -277.9239
   3   1.0000     -10.212825      -277.9051
   4   1.0000     -10.209370      -277.8111
   5   1.0000     -10.202959      -277.6366
   6   1.0000     -10.202774      -277.6316
   7   1.0000     -10.202543      -277.6253
   8   1.0000     -10.202062      -277.6122
   9   1.0000     -10.201794      -277.6049
  10   1.0000     -10.201187      -277.5884
  11   1.0000     -10.198910      -277.5265
  12   1.0000     -10.198614      -277.5184
  13   1.0000     -10.196330      -277.4562
  14   1.0000     -10.190974      -277.3105
  15   1.0000     -10.187972      -277.2288
  16   1.0000     -10.183389      -277.1041
  17   1.0000     -10.183141      -277.0974
  18   1.0000     -10.183124      -277.0969
  19   1.0000     -10.182905      -277.0909
  20   1.0000     -10.173779      -276.8426
  21   1.0000     -10.173717      -276.8409
  22   1.0000      -0.870137       -23.6776
  23   1.0000      -0.860910       -23.4265
  24   1.0000      -0.812182       -22.1006
  25   1.0000      -0.793874       -21.6024
  26   1.0000      -0.786859       -21.4115
  27   1.0000      -0.768773       -20.9194
  28   1.0000      -0.759910       -20.6782
  29   1.0000      -0.749075       -20.3834
  30   1.0000      -0.730473       -19.8772
  31   1.0000      -0.712863       -19.3980
  32   1.0000      -0.697016       -18.9668
  33   1.0000      -0.651466       -17.7273
  34   1.0000      -0.630702       -17.1623
  35   1.0000      -0.616867       -16.7858
  36   1.0000      -0.607534       -16.5318
  37   1.0000      -0.605566       -16.4783
  38   1.0000      -0.581502       -15.8235
  39   1.0000      -0.576267       -15.6810
  40   1.0000      -0.562823       -15.3152
  41   1.0000      -0.535878       -14.5820
  42   1.0000      -0.506472       -13.7818
  43   1.0000      -0.479116       -13.0374
  44   1.0000      -0.470975       -12.8159
  45   1.0000      -0.470867       -12.8129
  46   1.0000      -0.469948       -12.7879
  47   1.0000      -0.454815       -12.3761
  48   1.0000      -0.441382       -12.0106
  49   1.0000      -0.435949       -11.8628
  50   1.0000      -0.426780       -11.6133
  51   1.0000      -0.423318       -11.5191
  52   1.0000      -0.422689       -11.5019
  53   1.0000      -0.422271       -11.4906
  54   1.0000      -0.416929       -11.3452
  55   1.0000      -0.412994       -11.2381
  56   1.0000      -0.411282       -11.1915
  57   1.0000      -0.381016       -10.3680
  58   1.0000      -0.377521       -10.2729
  59   1.0000      -0.372405       -10.1336
  60   1.0000      -0.365111        -9.9352
  61   1.0000      -0.363732        -9.8976
  62   1.0000      -0.359261        -9.7760
  63   1.0000      -0.356818        -9.7095
  64   1.0000      -0.349635        -9.5141
  65   1.0000      -0.341137        -9.2828
  66   1.0000      -0.332731        -9.0541
  67   1.0000      -0.330955        -9.0057
  68   1.0000      -0.326085        -8.8732
  69   1.0000      -0.324093        -8.8190
  70   1.0000      -0.322198        -8.7675
  71   1.0000      -0.321605        -8.7513
  72   1.0000      -0.312528        -8.5043
  73   1.0000      -0.268553        -7.3077
  74   1.0000      -0.266591        -7.2543
  75   1.0000      -0.257037        -6.9943
  76   1.0000      -0.242228        -6.5914
  77   1.0000      -0.237124        -6.4525
  78   1.0000      -0.209988        -5.7141
  79   0.0000      -0.051433        -1.3996
  80   0.0000      -0.012312        -0.3350
  81   0.0000      -0.005352        -0.1456
  82   0.0000       0.003518         0.0957
  83   0.0000       0.015949         0.4340

                 SPIN DOWN ORBITALS
  NO   OCC          E(Eh)            E(eV)
   0   1.0000     -10.225167      -278.2409
   1   1.0000     -10.217280      -278.0263
   2   1.0000     -10.211471      -277.8682
   3   1.0000     -10.209452      -277.8133
   4   1.0000     -10.203007      -277.6379
   5   1.0000     -10.202820      -277.6328
   6   1.0000     -10.202597      -277.6268
   7   1.0000     -10.202050      -277.6119
   8   1.0000     -10.201794      -277.6049
   9   1.0000     -10.199985      -277.5557
  10   1.0000     -10.199245      -277.5356
  11   1.0000     -10.198584      -277.5176
  12   1.0000     -10.198333      -277.5108
  13   1.0000     -10.196422      -277.4587
  14   1.0000     -10.190515      -277.2980
  15   1.0000     -10.187841      -277.2253
  16   1.0000     -10.183385      -277.1040
  17   1.0000     -10.183135      -277.0972
  18   1.0000     -10.183116      -277.0967
  19   1.0000     -10.182897      -277.0907
  20   1.0000     -10.173775      -276.8425
  21   1.0000     -10.173718      -276.8409
  22   1.0000      -0.864536       -23.5252
  23   1.0000      -0.860563       -23.4171
  24   1.0000      -0.810354       -22.0508
  25   1.0000      -0.793740       -21.5988
  26   1.0000      -0.784678       -21.3522
  27   1.0000      -0.766721       -20.8635
  28   1.0000      -0.756173       -20.5765
  29   1.0000      -0.749137       -20.3851
  30   1.0000      -0.728654       -19.8277
  31   1.0000      -0.710316       -19.3287
  32   1.0000      -0.695120       -18.9152
  33   1.0000      -0.650294       -17.6954
  34   1.0000      -0.628727       -17.1085
  35   1.0000      -0.614865       -16.7313
  36   1.0000      -0.607545       -16.5321
  37   1.0000      -0.600533       -16.3413
  38   1.0000      -0.579718       -15.7749
  39   1.0000      -0.571531       -15.5522
  40   1.0000      -0.560738       -15.2585
  41   1.0000      -0.535125       -14.5615
  42   1.0000      -0.505000       -13.7417
  43   1.0000      -0.478710       -13.0264
  44   1.0000      -0.470876       -12.8132
  45   1.0000      -0.469872       -12.7859
  46   1.0000      -0.465836       -12.6760
  47   1.0000      -0.454747       -12.3743
  48   1.0000      -0.435758       -11.8576
  49   1.0000      -0.433959       -11.8086
  50   1.0000      -0.424400       -11.5485
  51   1.0000      -0.423296       -11.5185
  52   1.0000      -0.421812       -11.4781
  53   1.0000      -0.421161       -11.4604
  54   1.0000      -0.416819       -11.3422
  55   1.0000      -0.411091       -11.1864
  56   1.0000      -0.406474       -11.0607
  57   1.0000      -0.381087       -10.3699
  58   1.0000      -0.373659       -10.1678
  59   1.0000      -0.371434       -10.1072
  60   1.0000      -0.364090        -9.9074
  61   1.0000      -0.361263        -9.8305
  62   1.0000      -0.358464        -9.7543
  63   1.0000      -0.356628        -9.7043
  64   1.0000      -0.349638        -9.5141
  65   1.0000      -0.340682        -9.2704
  66   1.0000      -0.332103        -9.0370
  67   1.0000      -0.329707        -8.9718
  68   1.0000      -0.325518        -8.8578
  69   1.0000      -0.323833        -8.8119
  70   1.0000      -0.322122        -8.7654
  71   1.0000      -0.319945        -8.7061
  72   1.0000      -0.310935        -8.4610
  73   1.0000      -0.266262        -7.2454
  74   1.0000      -0.265605        -7.2275
  75   1.0000      -0.257213        -6.9991
  76   1.0000      -0.242307        -6.5935
  77   1.0000      -0.206308        -5.6139
  78   0.0000      -0.083775        -2.2796
  79   0.0000      -0.047366        -1.2889
  80   0.0000      -0.012460        -0.3390
  81   0.0000      -0.005669        -0.1543
  82   0.0000       0.008201         0.2232

MULLIKEN ATOMIC CHARGES AND SPIN POPULATIONS
--------------------------------------------
   0 C :   -0.364559    0.013819
   1 C :   -0.336884    1.021120
   2 C :    0.500507   -0.081944
   3 C :   -0.424143    0.051694
   4 C :    0.524587   -0.033174
   5 C :    0.224727    0.056192
   6 C :   -0.221197   -0.078006
   7 H :    0.134853    0.011785
   8 H :    0.126878    0.022658
   9 C :   -0.371437    0.029938
  10 H :    0.150015   -0.001315
  11 H :    0.150144   -0.001316
  12 C :   -0.259996    0.000945
  13 H :    0.141214    0.000053
  14 H :    0.141062    0.000054
  15 C :   -0.257357    0.000134
  16 H :    0.141695   -0.000013
  17 H :    0.141758   -0.000013
  18 C :   -0.507456    0.000122
  19 H :    0.157997   -0.000011
  20 H :    0.157992   -0.000011
  21 C :   -0.338014    0.006699
  22 H :    0.152607    0.001693
  23 H :    0.152586    0.001687
  24 C :   -0.269495    0.000012
  25 H :    0.139222    0.000172
  26 H :    0.139283    0.000172
  27 C :   -0.257730    0.000120
  28 H :    0.142015   -0.000016
  29 H :    0.141999   -0.000017
  30 C :   -0.508729   -0.000030
  31 H :    0.157878    0.000001
  32 H :    0.157887    0.000001
  33 C :   -0.313191   -0.018223
  34 H :    0.143772    0.000024
  35 H :    0.143394   -0.000009
  36 C :    0.597579    0.003504
  37 C :   -0.282979   -0.004207
  38 C :   -0.097067    0.002048
  39 C :   -0.123468   -0.004643
  40 C :   -0.100543    0.002048
  41 C :   -0.276621   -0.004234
  42 H :    0.105127    0.000254
  43 H :    0.104265   -0.000092
  44 H :    0.118041    0.000210
  45 H :    0.117473    0.000208
  46 H :    0.104310   -0.000092
Sum of atomic charges         :   -0.0000000

LOEWDIN ATOMIC CHARGES AND SPIN POPULATIONS
-------------------------------------------
   0 C :   -0.028510    0.006542
   1 C :    0.010877    0.837190
   2 C :   -0.093067    0.033351
   3 C :   -0.002842    0.043418
   4 C :   -0.076030   -0.025628
   5 C :   -0.036493    0.046676
   6 C :   -0.062685    0.026284
   7 H :    0.062735    0.008113
   8 H :    0.062037    0.016545
   9 C :   -0.054728    0.018384
  10 H :    0.058121   -0.001115
  11 H :    0.058137   -0.001122
  12 C :   -0.084499    0.000442
  13 H :    0.047268    0.000047
  14 H :    0.047230    0.000047
  15 C :   -0.096079    0.000251
  16 H :    0.043556   -0.000005
  17 H :    0.043554   -0.000005
  18 C :   -0.084675    0.000160
  19 H :    0.036412   -0.000004
  20 H :    0.036418   -0.000004
  21 C :   -0.048592    0.006090
  22 H :    0.062017    0.001482
  23 H :    0.062030    0.001481
  24 C :   -0.084996    0.000485
  25 H :    0.046853    0.000094
  26 H :    0.046868    0.000094
  27 C :   -0.096265    0.000413
  28 H :    0.043534    0.000005
  29 H :    0.043536    0.000005
  30 C :   -0.085012    0.000002
  31 H :    0.036429    0.000002
  32 H :    0.036427    0.000002
  33 C :   -0.039973   -0.013606
  34 H :    0.033882    0.000026
  35 H :    0.033903   -0.000006
  36 C :   -0.073061    0.001824
  37 C :   -0.018573   -0.003384
  38 C :   -0.045768    0.001240
  39 C :   -0.046989   -0.003655
  40 C :   -0.046177    0.001237
  41 C :   -0.018990   -0.003372
  42 H :    0.051288   -0.000027
  43 H :    0.052454    0.000012
  44 H :    0.058118   -0.000013
  45 H :    0.057786   -0.000013
  46 H :    0.052537    0.000012

  Mayer bond orders larger than 0.100000
B(  0-C ,  4-C ) :   0.8079 B(  0-C ,  5-C ) :   0.1093 B(  0-C , 33-C ) :   2.5111
B(  1-C ,  2-C ) :   1.2374 B(  1-C ,  3-C ) :   0.1179 B(  1-C ,  5-C ) :   0.1190
B(  1-C ,  6-C ) :   1.3985 B(  2-C ,  3-C ) :   1.4262 B(  2-C ,  9-C ) :   0.9081
B(  3-C ,  4-C ) :   1.4582 B(  3-C ,  7-H ) :   0.9839 B(  4-C ,  5-C ) :   1.4109
B(  4-C ,  6-C ) :   0.1034 B(  4-C , 33-C ) :   0.1009 B(  5-C ,  6-C ) :   1.3836
B(  5-C , 21-C ) :   0.9775 B(  6-C ,  8-H ) :   0.9724 B(  9-C , 10-H ) :   0.9676
B(  9-C , 11-H ) :   0.9675 B(  9-C , 12-C ) :   1.0188 B( 12-C , 13-H ) :   0.9624
B( 12-C , 14-H ) :   0.9622 B( 12-C , 15-C ) :   0.9856 B( 15-C , 16-H ) :   0.9719
B( 15-C , 17-H ) :   0.9719 B( 15-C , 18-C ) :   0.9554 B( 18-C , 19-H ) :   0.9720
B( 18-C , 20-H ) :   0.9720 B( 18-C , 34-H ) :   0.9680 B( 21-C , 22-H ) :   0.9533
B( 21-C , 23-H ) :   0.9536 B( 21-C , 24-C ) :   1.0162 B( 24-C , 25-H ) :   0.9618
B( 24-C , 26-H ) :   0.9619 B( 24-C , 27-C ) :   0.9910 B( 27-C , 28-H ) :   0.9713
B( 27-C , 29-H ) :   0.9713 B( 27-C , 30-C ) :   0.9543 B( 30-C , 31-H ) :   0.9729
B( 30-C , 32-H ) :   0.9729 B( 30-C , 35-H ) :   0.9673 B( 33-C , 36-C ) :   1.0061
B( 36-C , 37-C ) :   1.3903 B( 36-C , 38-C ) :   0.1003 B( 36-C , 41-C ) :   1.3859
B( 37-C , 38-C ) :   1.4757 B( 37-C , 39-C ) :   0.1008 B( 37-C , 44-H ) :   0.9828
B( 38-C , 39-C ) :   1.4525 B( 38-C , 46-H ) :   0.9767 B( 39-C , 40-C ) :   1.4550
B( 39-C , 41-C ) :   0.1021 B( 39-C , 42-H ) :   0.9664 B( 40-C , 41-C ) :   1.4759
B( 40-C , 43-H ) :   0.9777 B( 41-C , 45-H ) :   0.9807

FINAL SINGLE POINT ENERGY      -852.823364604979

DIPOLE MOMENT
-------------
                                X             Y             Z
Electronic contribution:     15.86113      -0.23057       0.01505
Nuclear contribution   :    -15.62451       0.23028      -0.01489
                        -----------------------------------------
Total Dipole Moment    :      0.23662      -0.00029       0.00016
                        -----------------------------------------
Magnitude (a.u.)       :      0.23662
Magnitude (Debye)      :      0.60143

Rotational constants in cm-1:     0.007056     0.004915     0.002910
Rotational constants in MHz :   211.539302   147.336779    87.224688

CHEMICAL SHIELDING SUMMARY (ppm)  --  Orbital contribution
----------------------------------------------------------

  Nucleus  Element    Isotropic     Anisotropy
  -------  -------  ------------   ------------
      7       H           24.301         12.959
      8       H           24.447          8.589
     10       H           28.775          6.256
     11       H           28.774          6.250
     13       H           29.994          4.771
     14       H           29.991          4.776
     16       H           30.143          6.807
     17       H           30.143          6.811
     19       H           30.699          7.846
     20       H           30.699          7.844
     22       H           28.578          6.211
     23       H           28.579          6.200
     25       H           29.966          4.944
     26       H           29.967          4.943
     28       H           30.061          6.254
     29       H           30.061          6.253
     31       H           30.695          8.185
     32       H           30.695          8.185
     34       H           30.486         10.265
     35       H           30.458         10.239
     42       H           24.343          4.535
     43       H           24.309          5.499
     44       H           24.045          7.924
     45       H           24.021          8.044
     46       H           24.300          5.201

                             ****ORCA TERMINATED NORMALLY****
TOTAL RUN TIME: 0 days 1 hours 13 minutes 55 seconds 503 msec
