                         Program Version 5.0.4 -  RELEASE  -
|  1> ! B3LYP cc-pVDZ OPT
|  2> %pal nprocs 16 end
|  3> *XYZFile 0 2 model.xyz
|  4>
|  5>                          ****END OF INPUT****
 Total Charge           Charge          ....    0
 Multiplicity           Mult            ....    2
 Number of Electrons    NEL             ....  157
FINAL SINGLE POINT ENERGY      -852.752245777732
                    ***********************HURRAY********************

CARTESIAN COORDINATES (ANGSTROEM)
---------------------------------
  C      2.831806   -0.006236   -0.008272
  C     -1.314139   -0.014773   -0.012929
  C     -0.703841   -1.259958   -0.014279
  C      0.699293   -1.203568   -0.012429
  C      1.402358    0.023007   -0.009542
  C      0.708612    1.263431   -0.008102
  C     -0.699666    1.217589   -0.009942
  H      1.283513   -2.125515   -0.013363
  H     -1.285093    2.138713   -0.009038
  C     -1.509688   -2.548043   -0.017242
  H     -2.182378   -2.530206   -0.894243
  H     -2.180594   -2.535322    0.861245
  C     -0.708611   -3.852555   -0.021718
  H     -0.045377   -3.880501   -0.905977
  H     -0.045441   -3.886600    0.862377
  C     -1.603186   -5.097748   -0.025923
  H     -2.269586   -5.070311    0.856270
  H     -2.268554   -5.065066   -0.908715
  C     -0.811642   -6.407882   -0.029365
  H     -0.163127   -6.486668    0.860305
  H     -0.161649   -6.481086   -0.918435
  C      1.483960    2.566701   -0.004836
  H      2.159953    2.562804    0.870276
  H      2.160515    2.566853   -0.879537
  C      0.662999    3.858831   -0.002137
  H      0.000591    3.884733   -0.887173
  H     -0.000881    3.880108    0.881917
  C      1.540854    5.116159    0.001806
  H      2.206133    5.092323    0.884894
  H      2.207958    5.096581   -0.880007
  C      0.732381    6.415841    0.004122
  H      0.081081    6.481192    0.892854
  H      0.083265    6.485731   -0.885860
  C      4.053310   -0.041189   -0.009378
  H     -1.480462   -7.283854   -0.032687
  H      1.389551    7.300598    0.007195
  C      5.481187   -0.085650   -0.008586
  C      6.162322   -1.322563   -0.012255
  C      7.556386   -1.361278   -0.011394
  C      8.297343   -0.174069   -0.006934
  C      7.632552    1.057518   -0.003328
  C      6.238850    1.105969   -0.004137
  H      9.389310   -0.208771   -0.006270
  H      8.204901    1.988374    0.000175
  H      5.582883   -2.247731   -0.015759
  H      5.718665    2.065740   -0.001296
  H      8.069533   -2.326054   -0.014261

 Multiplicity           Mult            ....    2
 Number of Electrons    NEL             ....  157
 Basis Dimension        Dim             ....  433

ORBITAL ENERGIES
----------------
                 SPIN UP ORBITALS
  NO   OCC          E(Eh)            E(eV)
   0   1.0000     -10.213990      -277.9368
   1   1.0000     -10.207000      -277.7466
   2   1.0000     -10.203568      -277.6532
   3   1.0000     -10.203400      -277.6486
   4   1.0000     -10.199725      -277.5486
   5   1.0000     -10.194576      -277.4085
   6   1.0000     -10.194428      -277.4045
   7   1.0000     -10.194356      -277.4025
   8   1.0000     -10.193598      -277.3819
   9   1.0000     -10.193260      -277.3727
  10   1.0000     -10.192949      -277.3642
  11   1.0000     -10.191415      -277.3225
  12   1.0000     -10.190024      -277.2847
  13   1.0000     -10.186685      -277.1938
  14   1.0000     -10.186063      -277.1769
  15   1.0000     -10.183836      -277.1163
  16   1.0000     -10.182758      -277.0869
  17   1.0000     -10.182590      -277.0824
  18   1.0000     -10.182410      -277.0775
  19   1.0000     -10.182237      -277.0728
  20   1.0000     -10.176300      -276.9112
  21   1.0000     -10.176134      -276.9067
  22   1.0000      -0.870702       -23.6930
  23   1.0000      -0.860731       -23.4217
  24   1.0000      -0.813858       -22.1462
  25   1.0000      -0.795877       -21.6569
  26   1.0000      -0.786786       -21.4095
  27   1.0000      -0.769855       -20.9488
  28   1.0000      -0.760154       -20.6849
  29   1.0000      -0.748583       -20.3700
  30   1.0000      -0.732267       -19.9260
  31   1.0000      -0.712430       -19.3862
  32   1.0000      -0.698275       -19.0010
  33   1.0000      -0.652731       -17.7617
  34   1.0000      -0.630631       -17.1604
  35   1.0000      -0.617621       -16.8063
  36   1.0000      -0.606752       -16.5106
  37   1.0000      -0.605575       -16.4785
  38   1.0000      -0.582029       -15.8378
  39   1.0000      -0.577096       -15.7036
  40   1.0000      -0.563185       -15.3251
  41   1.0000      -0.534627       -14.5479
  42   1.0000      -0.506517       -13.7830
  43   1.0000      -0.477806       -13.0018
  44   1.0000      -0.471877       -12.8404
  45   1.0000      -0.471419       -12.8280
  46   1.0000      -0.470336       -12.7985
  47   1.0000      -0.455217       -12.3871
  48   1.0000      -0.441092       -12.0027
  49   1.0000      -0.434779       -11.8309
  50   1.0000      -0.427543       -11.6340
  51   1.0000      -0.423905       -11.5350
  52   1.0000      -0.422498       -11.4968
  53   1.0000      -0.421907       -11.4807
  54   1.0000      -0.417068       -11.3490
  55   1.0000      -0.413694       -11.2572
  56   1.0000      -0.411821       -11.2062
  57   1.0000      -0.381151       -10.3717
  58   1.0000      -0.378479       -10.2989
  59   1.0000      -0.372644       -10.1402
  60   1.0000      -0.366056        -9.9609
  61   1.0000      -0.364286        -9.9127
  62   1.0000      -0.358014        -9.7421
  63   1.0000      -0.357006        -9.7146
  64   1.0000      -0.348169        -9.4742
  65   1.0000      -0.341188        -9.2842
  66   1.0000      -0.334043        -9.0898
  67   1.0000      -0.331758        -9.0276
  68   1.0000      -0.327325        -8.9070
  69   1.0000      -0.324791        -8.8380
  70   1.0000      -0.322875        -8.7859
  71   1.0000      -0.322869        -8.7857
  72   1.0000      -0.312224        -8.4960
  73   1.0000      -0.268079        -7.2948
  74   1.0000      -0.265667        -7.2292
  75   1.0000      -0.256416        -6.9774
  76   1.0000      -0.242196        -6.5905
  77   1.0000      -0.235961        -6.4208
  78   1.0000      -0.209145        -5.6911
  79   0.0000      -0.049512        -1.3473
  80   0.0000      -0.008147        -0.2217
  81   0.0000      -0.003243        -0.0882
  82   0.0000       0.006347         0.1727
  83   0.0000       0.048463         1.3187

                 SPIN DOWN ORBITALS
  NO   OCC          E(Eh)            E(eV)
   0   1.0000     -10.213921      -277.9349
   1   1.0000     -10.207596      -277.7628
   2   1.0000     -10.202186      -277.6156
   3   1.0000     -10.199807      -277.5509
   4   1.0000     -10.194643      -277.4103
   5   1.0000     -10.194496      -277.4063
   6   1.0000     -10.193624      -277.3826
   7   1.0000     -10.193232      -277.3719
   8   1.0000     -10.193138      -277.3694
   9   1.0000     -10.192961      -277.3646
  10   1.0000     -10.191664      -277.3293
  11   1.0000     -10.189572      -277.2724
  12   1.0000     -10.188048      -277.2309
  13   1.0000     -10.186554      -277.1902
  14   1.0000     -10.186009      -277.1754
  15   1.0000     -10.183953      -277.1194
  16   1.0000     -10.182753      -277.0868
  17   1.0000     -10.182585      -277.0822
  18   1.0000     -10.182401      -277.0772
  19   1.0000     -10.182229      -277.0725
  20   1.0000     -10.176295      -276.9111
  21   1.0000     -10.176134      -276.9067
  22   1.0000      -0.865008       -23.5381
  23   1.0000      -0.860480       -23.4148
  24   1.0000      -0.812117       -22.0988
  25   1.0000      -0.795672       -21.6513
  26   1.0000      -0.784511       -21.3476
  27   1.0000      -0.768038       -20.8994
  28   1.0000      -0.756239       -20.5783
  29   1.0000      -0.748647       -20.3717
  30   1.0000      -0.730405       -19.8753
  31   1.0000      -0.709986       -19.3197
  32   1.0000      -0.696251       -18.9460
  33   1.0000      -0.651577       -17.7303
  34   1.0000      -0.628757       -17.1093
  35   1.0000      -0.615237       -16.7415
  36   1.0000      -0.606731       -16.5100
  37   1.0000      -0.600889       -16.3510
  38   1.0000      -0.580518       -15.7967
  39   1.0000      -0.572015       -15.5653
  40   1.0000      -0.560972       -15.2648
  41   1.0000      -0.533893       -14.5280
  42   1.0000      -0.505038       -13.7428
  43   1.0000      -0.477412       -12.9910
  44   1.0000      -0.471332       -12.8256
  45   1.0000      -0.470253       -12.7962
  46   1.0000      -0.466777       -12.7016
  47   1.0000      -0.455148       -12.3852
  48   1.0000      -0.434711       -11.8291
  49   1.0000      -0.433433       -11.7943
  50   1.0000      -0.425349       -11.5743
  51   1.0000      -0.422464       -11.4958
  52   1.0000      -0.422037       -11.4842
  53   1.0000      -0.421884       -11.4800
  54   1.0000      -0.416956       -11.3460
  55   1.0000      -0.411828       -11.2064
  56   1.0000      -0.406904       -11.0724
  57   1.0000      -0.381221       -10.3735
  58   1.0000      -0.374417       -10.1884
  59   1.0000      -0.371687       -10.1141
  60   1.0000      -0.365025        -9.9328
  61   1.0000      -0.361418        -9.8347
  62   1.0000      -0.357618        -9.7313
  63   1.0000      -0.356823        -9.7097
  64   1.0000      -0.348178        -9.4744
  65   1.0000      -0.340722        -9.2715
  66   1.0000      -0.333387        -9.0719
  67   1.0000      -0.330448        -8.9920
  68   1.0000      -0.326782        -8.8922
  69   1.0000      -0.324574        -8.8321
  70   1.0000      -0.322783        -8.7834
  71   1.0000      -0.321120        -8.7381
  72   1.0000      -0.310640        -8.4529
  73   1.0000      -0.265352        -7.2206
  74   1.0000      -0.265145        -7.2150
  75   1.0000      -0.256596        -6.9823
  76   1.0000      -0.242265        -6.5924
  77   1.0000      -0.205494        -5.5918
  78   0.0000      -0.077379        -2.1056
  79   0.0000      -0.045356        -1.2342
  80   0.0000      -0.008304        -0.2260
  81   0.0000      -0.003602        -0.0980
  82   0.0000       0.011100         0.3020

MULLIKEN ATOMIC CHARGES AND SPIN POPULATIONS
--------------------------------------------
   0 C :    0.233457    0.013957
   1 C :   -0.135594    0.999770
   2 C :   -0.015176   -0.067628
   3 C :    0.024851    0.058252
   4 C :   -0.165533   -0.040347
   5 C :   -0.100504    0.065175
   6 C :    0.058991   -0.066380
   7 H :   -0.050428    0.013220
   8 H :   -0.021954    0.018933
   9 C :    0.047504    0.015968
  10 H :    0.025680    0.000722
  11 H :    0.025792    0.000701
  12 C :   -0.042212    0.000567
  13 H :    0.016396   -0.000010
  14 H :    0.016443   -0.000009
  15 C :   -0.025821    0.000311
  16 H :    0.006191   -0.000031
  17 H :    0.006202   -0.000031
  18 C :    0.000990    0.000223
  19 H :    0.017112   -0.000015
  20 H :    0.017107   -0.000015
  21 C :    0.039816    0.005791
  22 H :    0.032662    0.002219
  23 H :    0.032680    0.002215
  24 C :   -0.034948    0.000340
  25 H :    0.015059    0.000094
  26 H :    0.015045    0.000095
  27 C :   -0.025588    0.000085
  28 H :    0.005658    0.000060
  29 H :    0.005665    0.000060
  30 C :    0.003721    0.000007
  31 H :    0.016938    0.000003
  32 H :    0.016945    0.000003
  33 C :    0.156095   -0.019729
  34 H :    0.012892    0.000030
  35 H :    0.012680   -0.000011
  36 C :   -0.247392    0.004576
  37 C :    0.030242   -0.004747
  38 C :    0.040651    0.002504
  39 C :    0.032500   -0.005095
  40 C :    0.040413    0.002499
  41 C :    0.027701   -0.004746
  42 H :   -0.028733    0.000234
  43 H :   -0.028648   -0.000101
  44 H :   -0.041794    0.000187
  45 H :   -0.041206    0.000195
  46 H :   -0.028551   -0.000100
Sum of atomic charges         :   -0.0000000

LOEWDIN ATOMIC CHARGES AND SPIN POPULATIONS
-------------------------------------------
   0 C :   -0.016935    0.007182
   1 C :    0.024109    0.855184
   2 C :   -0.054392    0.022903
   3 C :    0.001992    0.047226
   4 C :   -0.060581   -0.025285
   5 C :    0.002156    0.048995
   6 C :   -0.057915    0.019080
   7 H :    0.028544    0.008225
   8 H :    0.032106    0.012899
   9 C :   -0.032381    0.011907
  10 H :    0.036676    0.000308
  11 H :    0.036714    0.000288
  12 C :   -0.044262    0.000477
  13 H :    0.024611    0.000039
  14 H :    0.024602    0.000039
  15 C :   -0.047249    0.000234
  16 H :    0.024005   -0.000012
  17 H :    0.024009   -0.000012
  18 C :   -0.067390    0.000162
  19 H :    0.025245   -0.000003
  20 H :    0.025248   -0.000003
  21 C :   -0.035543    0.005965
  22 H :    0.039103    0.001832
  23 H :    0.039123    0.001829
  24 C :   -0.043687    0.000494
  25 H :    0.024047    0.000077
  26 H :    0.024049    0.000077
  27 C :   -0.047123    0.000230
  28 H :    0.024010    0.000051
  29 H :    0.024012    0.000050
  30 C :   -0.067514   -0.000004
  31 H :    0.025157    0.000003
  32 H :    0.025156    0.000003
  33 C :   -0.028342   -0.014229
  34 H :    0.027582    0.000029
  35 H :    0.027514   -0.000007
  36 C :   -0.052732    0.002084
  37 C :   -0.002708   -0.003671
  38 C :   -0.024214    0.001484
  39 C :   -0.023114   -0.003933
  40 C :   -0.024391    0.001480
  41 C :   -0.003685   -0.003666
  42 H :    0.027637   -0.000015
  43 H :    0.028859    0.000005
  44 H :    0.029560   -0.000006
  45 H :    0.029396   -0.000002
  46 H :    0.028937    0.000006

  Mayer bond orders larger than 0.100000
B(  0-C ,  4-C ) :   0.9037 B(  0-C , 33-C ) :   1.7833 B(  0-C , 36-C ) :  -0.1629
B(  1-C ,  2-C ) :   1.3941 B(  1-C ,  6-C ) :   1.4445 B(  2-C ,  3-C ) :   1.4325
B(  2-C ,  9-C ) :   1.0450 B(  3-C ,  4-C ) :   1.4170 B(  3-C ,  7-H ) :   0.9222
B(  4-C ,  5-C ) :   1.4135 B(  4-C , 33-C ) :  -0.1015 B(  5-C ,  6-C ) :   1.4548
B(  5-C , 21-C ) :   1.0884 B(  6-C ,  8-H ) :   0.9100 B(  9-C , 10-H ) :   0.9171
B(  9-C , 11-H ) :   0.9170 B(  9-C , 12-C ) :   1.1023 B( 12-C , 13-H ) :   0.9310
B( 12-C , 14-H ) :   0.9309 B( 12-C , 15-C ) :   1.0755 B( 15-C , 16-H ) :   0.9415
B( 15-C , 17-H ) :   0.9415 B( 15-C , 18-C ) :   1.1056 B( 18-C , 19-H ) :   0.9666
B( 18-C , 20-H ) :   0.9666 B( 18-C , 34-H ) :   0.9622 B( 21-C , 22-H ) :   0.8984
B( 21-C , 23-H ) :   0.8984 B( 21-C , 24-C ) :   1.1010 B( 24-C , 25-H ) :   0.9298
B( 24-C , 26-H ) :   0.9298 B( 24-C , 27-C ) :   1.0758 B( 27-C , 28-H ) :   0.9412
B( 27-C , 29-H ) :   0.9412 B( 27-C , 30-C ) :   1.1061 B( 30-C , 31-H ) :   0.9662
B( 30-C , 32-H ) :   0.9663 B( 30-C , 35-H ) :   0.9617 B( 33-C , 36-C ) :   0.9222
B( 36-C , 37-C ) :   1.4426 B( 36-C , 41-C ) :   1.4398 B( 37-C , 38-C ) :   1.4697
B( 37-C , 44-H ) :   0.9399 B( 38-C , 39-C ) :   1.4447 B( 38-C , 46-H ) :   0.9378
B( 39-C , 40-C ) :   1.4439 B( 39-C , 42-H ) :   0.9432 B( 40-C , 41-C ) :   1.4699
B( 40-C , 43-H ) :   0.9379 B( 41-C , 45-H ) :   0.9402

FINAL SINGLE POINT ENERGY      -852.752248188775

DIPOLE MOMENT
-------------
                                X             Y             Z
Electronic contribution:     15.82417      -0.23644       0.01506
Nuclear contribution   :    -15.62451       0.23028      -0.01489
                        -----------------------------------------
Total Dipole Moment    :      0.19966      -0.00616       0.00017
                        -----------------------------------------
Magnitude (a.u.)       :      0.19975
Magnitude (Debye)      :      0.50774

Rotational constants in cm-1:     0.007056     0.004915     0.002910
Rotational constants in MHz :   211.539302   147.336779    87.224688

                             ****ORCA TERMINATED NORMALLY****
TOTAL RUN TIME: 0 days 0 hours 3 minutes 10 seconds 210 msec
