                         Program Version 4.2.1 -  RELEASE  -
|  1> ! B3LYP cc-pVDZ OPT
|  2> %pal nprocs 16 end
|  3> *XYZFile 0 2 model.xyz
|  4>
|  5>                          ****END OF INPUT****
 Total Charge           Charge          ....    0
 Multiplicity           Mult            ....    2
 Number of Electrons    NEL             ....  157
FINAL SINGLE POINT ENERGY      -852.736233123160
FINAL SINGLE POINT ENERGY      -852.749625597247
FINAL SINGLE POINT ENERGY      -852.751094233636
FINAL SINGLE POINT ENERGY      -852.751381781217
FINAL SINGLE POINT ENERGY      -852.751409568678
FINAL SINGLE POINT ENERGY      -852.751416390821
FINAL SINGLE POINT ENERGY      -852.751419915492
FINAL SINGLE POINT ENERGY      -852.751422437730
FINAL SINGLE POINT ENERGY      -852.751423292447
                    ***********************HURRAY********************

CARTESIAN COORDINATES (ANGSTROEM)
---------------------------------
  C      2.832555   -0.007076   -0.008095
  C     -1.313497   -0.015116   -0.012872
  C     -0.703416   -1.260389   -0.013943
  C      0.699749   -1.204610   -0.012161
  C      1.403039    0.021918   -0.009480
  C      0.709456    1.262414   -0.008309
  C     -0.698798    1.216963   -0.010181
  H      1.283492   -2.126794   -0.012884
  H     -1.283339    2.138456   -0.009530
  C     -1.510185   -2.547944   -0.016431
  H     -2.183510   -2.529548   -0.893476
  H     -2.180708   -2.534611    0.862879
  C     -0.710213   -3.852977   -0.021273
  H     -0.047138   -3.881333   -0.906144
  H     -0.046634   -3.887573    0.863002
  C     -1.605558   -5.097224   -0.025224
  H     -2.271946   -5.069379    0.857472
  H     -2.271165   -5.064255   -0.908327
  C     -0.814938   -6.407520   -0.028677
  H     -0.166172   -6.486821    0.861015
  H     -0.164973   -6.481390   -0.917970
  C      1.485361    2.565508   -0.005459
  H      2.161743    2.561750    0.869830
  H      2.161886    2.565468   -0.880665
  C      0.664424    3.857459   -0.002856
  H      0.001691    3.883015   -0.888179
  H      0.000488    3.878690    0.881681
  C      1.541658    5.114789    0.000681
  H      2.207167    5.091661    0.884114
  H      2.208804    5.095503   -0.881611
  C      0.732465    6.413588    0.002755
  H      0.081035    6.478935    0.891672
  H      0.083052    6.483044   -0.887318
  C      4.054122   -0.041607   -0.009185
  H     -1.484315   -7.282892   -0.031824
  H      1.389047    7.298590    0.005556
  C      5.482055   -0.085029   -0.008313
  C      6.164317   -1.321223   -0.017649
  C      7.558378   -1.358292   -0.016711
  C      8.298216   -0.170529   -0.006574
  C      7.632263    1.060320    0.002671
  C      6.238559    1.107216    0.001834
  H      9.390566   -0.204333   -0.005846
  H      8.203600    1.991853    0.010736
  H      5.585737   -2.246961   -0.025754
  H      5.717110    2.066429    0.009216
  H      8.072617   -2.322542   -0.024104

 Multiplicity           Mult            ....    2
 Number of Electrons    NEL             ....  157
 Basis Dimension        Dim             ....  433

ORBITAL ENERGIES
----------------
                 SPIN UP ORBITALS
  NO   OCC          E(Eh)            E(eV)
   0   1.0000     -10.213800      -277.9316
   1   1.0000     -10.206842      -277.7423
   2   1.0000     -10.203467      -277.6505
   3   1.0000     -10.203180      -277.6426
   4   1.0000     -10.199644      -277.5464
   5   1.0000     -10.194524      -277.4071
   6   1.0000     -10.194334      -277.4019
   7   1.0000     -10.194227      -277.3990
   8   1.0000     -10.193625      -277.3826
   9   1.0000     -10.193209      -277.3713
  10   1.0000     -10.192955      -277.3644
  11   1.0000     -10.191183      -277.3162
  12   1.0000     -10.190383      -277.2944
  13   1.0000     -10.186949      -277.2010
  14   1.0000     -10.185992      -277.1749
  15   1.0000     -10.183752      -277.1140
  16   1.0000     -10.183051      -277.0949
  17   1.0000     -10.182882      -277.0903
  18   1.0000     -10.182671      -277.0846
  19   1.0000     -10.182497      -277.0798
  20   1.0000     -10.176537      -276.9177
  21   1.0000     -10.176380      -276.9134
  22   1.0000      -0.870701       -23.6930
  23   1.0000      -0.860753       -23.4223
  24   1.0000      -0.814005       -22.1502
  25   1.0000      -0.796084       -21.6626
  26   1.0000      -0.786817       -21.4104
  27   1.0000      -0.769987       -20.9524
  28   1.0000      -0.760155       -20.6849
  29   1.0000      -0.748571       -20.3697
  30   1.0000      -0.732468       -19.9315
  31   1.0000      -0.712434       -19.3863
  32   1.0000      -0.698398       -19.0044
  33   1.0000      -0.652849       -17.7649
  34   1.0000      -0.630648       -17.1608
  35   1.0000      -0.617724       -16.8091
  36   1.0000      -0.606760       -16.5108
  37   1.0000      -0.605596       -16.4791
  38   1.0000      -0.582159       -15.8414
  39   1.0000      -0.577297       -15.7090
  40   1.0000      -0.563300       -15.3282
  41   1.0000      -0.534625       -14.5479
  42   1.0000      -0.506545       -13.7838
  43   1.0000      -0.477778       -13.0010
  44   1.0000      -0.471934       -12.8420
  45   1.0000      -0.471694       -12.8355
  46   1.0000      -0.470617       -12.8061
  47   1.0000      -0.455230       -12.3874
  48   1.0000      -0.441063       -12.0019
  49   1.0000      -0.434762       -11.8305
  50   1.0000      -0.427628       -11.6364
  51   1.0000      -0.424092       -11.5401
  52   1.0000      -0.422648       -11.5008
  53   1.0000      -0.421919       -11.4810
  54   1.0000      -0.417262       -11.3543
  55   1.0000      -0.413879       -11.2622
  56   1.0000      -0.411963       -11.2101
  57   1.0000      -0.381085       -10.3699
  58   1.0000      -0.378612       -10.3026
  59   1.0000      -0.372628       -10.1397
  60   1.0000      -0.366242        -9.9660
  61   1.0000      -0.364433        -9.9167
  62   1.0000      -0.358000        -9.7417
  63   1.0000      -0.357150        -9.7185
  64   1.0000      -0.348157        -9.4738
  65   1.0000      -0.341260        -9.2862
  66   1.0000      -0.334295        -9.0966
  67   1.0000      -0.332073        -9.0362
  68   1.0000      -0.327615        -8.9148
  69   1.0000      -0.325029        -8.8445
  70   1.0000      -0.323116        -8.7924
  71   1.0000      -0.323017        -8.7897
  72   1.0000      -0.312198        -8.4953
  73   1.0000      -0.268008        -7.2929
  74   1.0000      -0.265569        -7.2265
  75   1.0000      -0.256365        -6.9760
  76   1.0000      -0.242205        -6.5907
  77   1.0000      -0.235942        -6.4203
  78   1.0000      -0.209103        -5.6900
  79   0.0000      -0.049620        -1.3502
  80   0.0000      -0.008022        -0.2183
  81   0.0000      -0.003189        -0.0868
  82   0.0000       0.006250         0.1701
  83   0.0000       0.048258         1.3132

                 SPIN DOWN ORBITALS
  NO   OCC          E(Eh)            E(eV)
   0   1.0000     -10.213730      -277.9297
   1   1.0000     -10.207440      -277.7586
   2   1.0000     -10.202081      -277.6127
   3   1.0000     -10.199729      -277.5487
   4   1.0000     -10.194592      -277.4090
   5   1.0000     -10.194401      -277.4038
   6   1.0000     -10.193663      -277.3837
   7   1.0000     -10.193181      -277.3706
   8   1.0000     -10.193006      -277.3658
   9   1.0000     -10.192956      -277.3644
  10   1.0000     -10.191433      -277.3230
  11   1.0000     -10.189930      -277.2821
  12   1.0000     -10.187797      -277.2240
  13   1.0000     -10.186816      -277.1974
  14   1.0000     -10.185934      -277.1734
  15   1.0000     -10.183872      -277.1173
  16   1.0000     -10.183046      -277.0948
  17   1.0000     -10.182877      -277.0902
  18   1.0000     -10.182662      -277.0843
  19   1.0000     -10.182489      -277.0796
  20   1.0000     -10.176533      -276.9175
  21   1.0000     -10.176380      -276.9134
  22   1.0000      -0.865005       -23.5380
  23   1.0000      -0.860500       -23.4154
  24   1.0000      -0.812275       -22.1031
  25   1.0000      -0.795872       -21.6568
  26   1.0000      -0.784541       -21.3484
  27   1.0000      -0.768186       -20.9034
  28   1.0000      -0.756229       -20.5780
  29   1.0000      -0.748636       -20.3714
  30   1.0000      -0.730602       -19.8807
  31   1.0000      -0.709993       -19.3199
  32   1.0000      -0.696365       -18.9491
  33   1.0000      -0.651697       -17.7336
  34   1.0000      -0.628790       -17.1103
  35   1.0000      -0.615310       -16.7434
  36   1.0000      -0.606738       -16.5102
  37   1.0000      -0.600950       -16.3527
  38   1.0000      -0.580714       -15.8020
  39   1.0000      -0.572146       -15.5689
  40   1.0000      -0.561061       -15.2673
  41   1.0000      -0.533892       -14.5279
  42   1.0000      -0.505064       -13.7435
  43   1.0000      -0.477382       -12.9902
  44   1.0000      -0.471613       -12.8332
  45   1.0000      -0.470533       -12.8039
  46   1.0000      -0.466843       -12.7034
  47   1.0000      -0.455162       -12.3856
  48   1.0000      -0.434722       -11.8294
  49   1.0000      -0.433391       -11.7932
  50   1.0000      -0.425469       -11.5776
  51   1.0000      -0.422656       -11.5010
  52   1.0000      -0.422190       -11.4884
  53   1.0000      -0.421908       -11.4807
  54   1.0000      -0.417151       -11.3512
  55   1.0000      -0.412045       -11.2123
  56   1.0000      -0.406973       -11.0743
  57   1.0000      -0.381149       -10.3716
  58   1.0000      -0.374531       -10.1915
  59   1.0000      -0.371677       -10.1139
  60   1.0000      -0.365210        -9.9379
  61   1.0000      -0.361546        -9.8382
  62   1.0000      -0.357624        -9.7315
  63   1.0000      -0.356971        -9.7137
  64   1.0000      -0.348166        -9.4741
  65   1.0000      -0.340789        -9.2733
  66   1.0000      -0.333638        -9.0787
  67   1.0000      -0.330757        -9.0004
  68   1.0000      -0.327070        -8.9000
  69   1.0000      -0.324818        -8.8388
  70   1.0000      -0.323022        -8.7899
  71   1.0000      -0.321257        -8.7418
  72   1.0000      -0.310605        -8.4520
  73   1.0000      -0.265353        -7.2206
  74   1.0000      -0.264973        -7.2103
  75   1.0000      -0.256546        -6.9810
  76   1.0000      -0.242274        -6.5926
  77   1.0000      -0.205451        -5.5906
  78   0.0000      -0.077324        -2.1041
  79   0.0000      -0.045467        -1.2372
  80   0.0000      -0.008180        -0.2226
  81   0.0000      -0.003548        -0.0965
  82   0.0000       0.011003         0.2994

MULLIKEN ATOMIC CHARGES AND SPIN POPULATIONS
--------------------------------------------
   0 C :    0.230943    0.013953
   1 C :   -0.138894    0.999848
   2 C :   -0.021708   -0.067059
   3 C :    0.027961    0.058374
   4 C :   -0.166401   -0.040403
   5 C :   -0.103062    0.065127
   6 C :    0.067345   -0.067081
   7 H :   -0.048419    0.013097
   8 H :   -0.020896    0.019106
   9 C :    0.047244    0.015974
  10 H :    0.026920    0.000745
  11 H :    0.026964    0.000719
  12 C :   -0.044437    0.000521
  13 H :    0.016639   -0.000006
  14 H :    0.016655   -0.000005
  15 C :   -0.025860    0.000312
  16 H :    0.006502   -0.000033
  17 H :    0.006455   -0.000034
  18 C :    0.000399    0.000223
  19 H :    0.017078   -0.000014
  20 H :    0.017060   -0.000014
  21 C :    0.037441    0.005817
  22 H :    0.034254    0.002221
  23 H :    0.034262    0.002214
  24 C :   -0.037146    0.000321
  25 H :    0.015187    0.000096
  26 H :    0.015215    0.000096
  27 C :   -0.025202    0.000089
  28 H :    0.005858    0.000061
  29 H :    0.005959    0.000061
  30 C :    0.003102    0.000006
  31 H :    0.016929    0.000003
  32 H :    0.016927    0.000003
  33 C :    0.159496   -0.019742
  34 H :    0.012981    0.000030
  35 H :    0.012447   -0.000011
  36 C :   -0.249636    0.004612
  37 C :    0.031723   -0.004787
  38 C :    0.041083    0.002525
  39 C :    0.024902   -0.005134
  40 C :    0.043803    0.002519
  41 C :    0.026348   -0.004779
  42 H :   -0.023838    0.000236
  43 H :   -0.029050   -0.000102
  44 H :   -0.041417    0.000199
  45 H :   -0.040708    0.000196
  46 H :   -0.029407   -0.000101
Sum of atomic charges         :   -0.0000000

LOEWDIN ATOMIC CHARGES AND SPIN POPULATIONS
-------------------------------------------
   0 C :   -0.017125    0.007196
   1 C :    0.024270    0.855172
   2 C :   -0.054639    0.022883
   3 C :    0.002272    0.047238
   4 C :   -0.060577   -0.025331
   5 C :    0.002073    0.049016
   6 C :   -0.057575    0.019089
   7 H :    0.028746    0.008208
   8 H :    0.032232    0.012967
   9 C :   -0.032830    0.011917
  10 H :    0.036849    0.000318
  11 H :    0.036879    0.000294
  12 C :   -0.044619    0.000454
  13 H :    0.024664    0.000039
  14 H :    0.024647    0.000039
  15 C :   -0.047331    0.000234
  16 H :    0.023984   -0.000013
  17 H :    0.023977   -0.000013
  18 C :   -0.067349    0.000162
  19 H :    0.025251   -0.000003
  20 H :    0.025253   -0.000003
  21 C :   -0.036153    0.005984
  22 H :    0.039414    0.001834
  23 H :    0.039455    0.001830
  24 C :   -0.044055    0.000494
  25 H :    0.024060    0.000076
  26 H :    0.024071    0.000076
  27 C :   -0.047168    0.000233
  28 H :    0.023957    0.000052
  29 H :    0.023982    0.000052
  30 C :   -0.067429   -0.000004
  31 H :    0.025173    0.000003
  32 H :    0.025171    0.000003
  33 C :   -0.028203   -0.014257
  34 H :    0.027683    0.000028
  35 H :    0.027541   -0.000007
  36 C :   -0.052681    0.002100
  37 C :   -0.002525   -0.003692
  38 C :   -0.023853    0.001496
  39 C :   -0.024470   -0.003961
  40 C :   -0.023909    0.001492
  41 C :   -0.003782   -0.003687
  42 H :    0.028312   -0.000015
  43 H :    0.028776    0.000005
  44 H :    0.029545   -0.000004
  45 H :    0.029329   -0.000002
  46 H :    0.028709    0.000006

  Mayer bond orders larger than 0.100000
B(  0-C ,  4-C ) :   0.9082 B(  0-C , 33-C ) :   1.7951 B(  0-C , 36-C ) :  -0.1636
B(  1-C ,  2-C ) :   1.3971 B(  1-C ,  6-C ) :   1.4379 B(  2-C ,  3-C ) :   1.4351
B(  2-C ,  9-C ) :   1.0440 B(  3-C ,  4-C ) :   1.4118 B(  3-C ,  7-H ) :   0.9247
B(  4-C ,  5-C ) :   1.4152 B(  4-C , 33-C ) :  -0.1028 B(  5-C ,  6-C ) :   1.4552
B(  5-C , 21-C ) :   1.0897 B(  6-C ,  8-H ) :   0.9110 B(  9-C , 10-H ) :   0.9177
B(  9-C , 11-H ) :   0.9176 B(  9-C , 12-C ) :   1.1014 B( 12-C , 13-H ) :   0.9313
B( 12-C , 14-H ) :   0.9312 B( 12-C , 15-C ) :   1.0747 B( 15-C , 16-H ) :   0.9421
B( 15-C , 17-H ) :   0.9421 B( 15-C , 18-C ) :   1.1037 B( 18-C , 19-H ) :   0.9668
B( 18-C , 20-H ) :   0.9668 B( 18-C , 34-H ) :   0.9631 B( 21-C , 22-H ) :   0.8987
B( 21-C , 23-H ) :   0.8988 B( 21-C , 24-C ) :   1.0994 B( 24-C , 25-H ) :   0.9300
B( 24-C , 26-H ) :   0.9300 B( 24-C , 27-C ) :   1.0748 B( 27-C , 28-H ) :   0.9417
B( 27-C , 29-H ) :   0.9417 B( 27-C , 30-C ) :   1.1040 B( 30-C , 31-H ) :   0.9665
B( 30-C , 32-H ) :   0.9665 B( 30-C , 35-H ) :   0.9627 B( 33-C , 36-C ) :   0.9273
B( 36-C , 37-C ) :   1.4403 B( 36-C , 41-C ) :   1.4384 B( 37-C , 38-C ) :   1.4723
B( 37-C , 44-H ) :   0.9401 B( 38-C , 39-C ) :   1.4455 B( 38-C , 46-H ) :   0.9376
B( 39-C , 40-C ) :   1.4431 B( 39-C , 42-H ) :   0.9441 B( 40-C , 41-C ) :   1.4724
B( 40-C , 43-H ) :   0.9376 B( 41-C , 45-H ) :   0.9404

FINAL SINGLE POINT ENERGY      -852.751423683812

DIPOLE MOMENT
-------------
                                X             Y             Z
Electronic contribution:     15.83419      -0.23445       0.01745
Nuclear contribution   :    -15.63654       0.22826      -0.01735
                        -----------------------------------------
Total Dipole Moment    :      0.19765      -0.00618       0.00009
                        -----------------------------------------
Magnitude (a.u.)       :      0.19775
Magnitude (Debye)      :      0.50263

Rotational constants in cm-1:     0.007062     0.004912     0.002909
Rotational constants in MHz :   211.706210   147.251620    87.223548

                             ****ORCA TERMINATED NORMALLY****
TOTAL RUN TIME: 0 days 0 hours 14 minutes 52 seconds 863 msec
