                         Program Version 5.0.4 -  RELEASE  -
|  1> ! B3LYP EPR-II OPT
|  2> %pal nprocs 16 end
|  3> *XYZFile 0 2 model.xyz
|  4>
|  5>                          ****END OF INPUT****
 Total Charge           Charge          ....    0
 Multiplicity           Mult            ....    2
 Number of Electrons    NEL             ....  157
FINAL SINGLE POINT ENERGY      -852.824056332957
FINAL SINGLE POINT ENERGY      -852.825141267981
FINAL SINGLE POINT ENERGY      -852.825191610769
FINAL SINGLE POINT ENERGY      -852.825202979793
                    ***********************HURRAY********************

CARTESIAN COORDINATES (ANGSTROEM)
---------------------------------
  C      2.832750   -0.007026   -0.008538
  C     -1.321227   -0.009087   -0.012934
  C     -0.711139   -1.259621   -0.014747
  C      0.696046   -1.205428   -0.012952
  C      1.400111    0.024530   -0.009719
  C      0.708755    1.269203   -0.007834
  C     -0.704171    1.227961   -0.009590
  H      1.274749   -2.124003   -0.014183
  H     -1.285017    2.144564   -0.008357
  C     -1.521335   -2.550266   -0.018223
  H     -2.184720   -2.534794   -0.893032
  H     -2.184690   -2.539529    0.856693
  C     -0.710102   -3.855592   -0.021701
  H     -0.053522   -3.882624   -0.901529
  H     -0.055086   -3.888234    0.859109
  C     -1.606343   -5.107042   -0.026447
  H     -2.265608   -5.083452    0.851417
  H     -2.263281   -5.078429   -0.905902
  C     -0.803343   -6.419535   -0.029157
  H     -0.161252   -6.490161    0.856030
  H     -0.158238   -6.484648   -0.912573
  C      1.488454    2.575873   -0.004295
  H      2.155155    2.573760    0.868595
  H      2.156044    2.577927   -0.876519
  C      0.657236    3.868331   -0.001653
  H      0.002419    3.893449   -0.882978
  H      0.000572    3.888696    0.878415
  C      1.536624    5.132056    0.002664
  H      2.193846    5.112142    0.882153
  H      2.196059    5.116609   -0.875258
  C      0.716770    6.433947    0.004962
  H      0.070983    6.491216    0.888453
  H      0.073737    6.496095   -0.880208
  C      4.057560   -0.041158   -0.009585
  H     -1.465005   -7.291860   -0.032997
  H      1.367006    7.314871    0.008399
  C      5.489295   -0.089648   -0.008845
  C      6.166131   -1.333882   -0.009628
  C      7.565134   -1.378457   -0.008865
  C      8.314078   -0.189238   -0.007346
  C      7.650717    1.049831   -0.006591
  C      6.251984    1.103767   -0.007353
  H      9.400065   -0.227665   -0.006767
  H      8.224047    1.973231   -0.005425
  H      5.585595   -2.251669   -0.010807
  H      5.738049    2.060418   -0.006803
  H      8.072255   -2.339826   -0.009462

 Multiplicity           Mult            ....    2
 Number of Electrons    NEL             ....  157
 Basis Dimension        Dim             ....  549

ORBITAL ENERGIES
----------------
                 SPIN UP ORBITALS
  NO   OCC          E(Eh)            E(eV)
   0   1.0000     -10.226313      -278.2721
   1   1.0000     -10.217634      -278.0360
   2   1.0000     -10.214496      -277.9506
   3   1.0000     -10.213605      -277.9263
   4   1.0000     -10.210294      -277.8362
   5   1.0000     -10.203377      -277.6480
   6   1.0000     -10.203223      -277.6438
   7   1.0000     -10.203023      -277.6384
   8   1.0000     -10.202577      -277.6262
   9   1.0000     -10.202355      -277.6202
  10   1.0000     -10.201384      -277.5938
  11   1.0000     -10.199320      -277.5376
  12   1.0000     -10.199299      -277.5370
  13   1.0000     -10.197063      -277.4762
  14   1.0000     -10.190061      -277.2856
  15   1.0000     -10.187022      -277.2030
  16   1.0000     -10.182168      -277.0709
  17   1.0000     -10.181829      -277.0616
  18   1.0000     -10.181810      -277.0611
  19   1.0000     -10.181553      -277.0541
  20   1.0000     -10.171558      -276.7822
  21   1.0000     -10.171458      -276.7794
  22   1.0000      -0.868063       -23.6212
  23   1.0000      -0.858449       -23.3596
  24   1.0000      -0.810882       -22.0652
  25   1.0000      -0.792745       -21.5717
  26   1.0000      -0.785442       -21.3730
  27   1.0000      -0.767509       -20.8850
  28   1.0000      -0.758865       -20.6498
  29   1.0000      -0.748271       -20.3615
  30   1.0000      -0.730038       -19.8653
  31   1.0000      -0.712105       -19.3774
  32   1.0000      -0.696757       -18.9597
  33   1.0000      -0.651907       -17.7393
  34   1.0000      -0.630551       -17.1582
  35   1.0000      -0.617673       -16.8077
  36   1.0000      -0.607749       -16.5377
  37   1.0000      -0.605762       -16.4836
  38   1.0000      -0.582363       -15.8469
  39   1.0000      -0.577537       -15.7156
  40   1.0000      -0.564037       -15.3482
  41   1.0000      -0.535396       -14.5689
  42   1.0000      -0.506099       -13.7716
  43   1.0000      -0.480674       -13.0798
  44   1.0000      -0.471771       -12.8375
  45   1.0000      -0.470796       -12.8110
  46   1.0000      -0.469513       -12.7761
  47   1.0000      -0.453243       -12.3334
  48   1.0000      -0.442236       -12.0339
  49   1.0000      -0.436536       -11.8788
  50   1.0000      -0.426000       -11.5921
  51   1.0000      -0.423803       -11.5323
  52   1.0000      -0.423190       -11.5156
  53   1.0000      -0.421586       -11.4719
  54   1.0000      -0.418382       -11.3847
  55   1.0000      -0.412664       -11.2292
  56   1.0000      -0.411320       -11.1926
  57   1.0000      -0.379932       -10.3385
  58   1.0000      -0.376551       -10.2465
  59   1.0000      -0.372034       -10.1236
  60   1.0000      -0.365326        -9.9410
  61   1.0000      -0.363848        -9.9008
  62   1.0000      -0.359770        -9.7898
  63   1.0000      -0.358892        -9.7659
  64   1.0000      -0.350512        -9.5379
  65   1.0000      -0.342727        -9.3261
  66   1.0000      -0.331738        -9.0270
  67   1.0000      -0.330900        -9.0043
  68   1.0000      -0.326289        -8.8788
  69   1.0000      -0.325472        -8.8565
  70   1.0000      -0.324542        -8.8312
  71   1.0000      -0.320415        -8.7189
  72   1.0000      -0.311741        -8.4829
  73   1.0000      -0.267811        -7.2875
  74   1.0000      -0.266116        -7.2414
  75   1.0000      -0.256339        -6.9753
  76   1.0000      -0.242146        -6.5891
  77   1.0000      -0.237247        -6.4558
  78   1.0000      -0.209682        -5.7057
  79   0.0000      -0.051894        -1.4121
  80   0.0000      -0.013419        -0.3651
  81   0.0000      -0.006282        -0.1709
  82   0.0000       0.002638         0.0718
  83   0.0000       0.016486         0.4486

                 SPIN DOWN ORBITALS
  NO   OCC          E(Eh)            E(eV)
   0   1.0000     -10.226242      -278.2702
   1   1.0000     -10.218240      -278.0525
   2   1.0000     -10.212236      -277.8891
   3   1.0000     -10.210388      -277.8388
   4   1.0000     -10.203421      -277.6492
   5   1.0000     -10.203273      -277.6452
   6   1.0000     -10.203092      -277.6402
   7   1.0000     -10.202563      -277.6259
   8   1.0000     -10.202353      -277.6201
   9   1.0000     -10.200163      -277.5605
  10   1.0000     -10.199769      -277.5498
  11   1.0000     -10.199279      -277.5365
  12   1.0000     -10.199153      -277.5331
  13   1.0000     -10.197166      -277.4790
  14   1.0000     -10.189610      -277.2734
  15   1.0000     -10.186889      -277.1993
  16   1.0000     -10.182166      -277.0708
  17   1.0000     -10.181822      -277.0615
  18   1.0000     -10.181803      -277.0609
  19   1.0000     -10.181545      -277.0539
  20   1.0000     -10.171554      -276.7820
  21   1.0000     -10.171458      -276.7795
  22   1.0000      -0.862476       -23.4692
  23   1.0000      -0.858145       -23.3513
  24   1.0000      -0.809095       -22.0166
  25   1.0000      -0.792609       -21.5680
  26   1.0000      -0.783223       -21.3126
  27   1.0000      -0.765521       -20.8309
  28   1.0000      -0.755082       -20.5468
  29   1.0000      -0.748336       -20.3633
  30   1.0000      -0.728215       -19.8157
  31   1.0000      -0.709608       -19.3094
  32   1.0000      -0.694806       -18.9066
  33   1.0000      -0.650769       -17.7083
  34   1.0000      -0.628800       -17.1105
  35   1.0000      -0.615420       -16.7464
  36   1.0000      -0.607765       -16.5381
  37   1.0000      -0.601076       -16.3561
  38   1.0000      -0.581150       -15.8139
  39   1.0000      -0.572143       -15.5688
  40   1.0000      -0.561729       -15.2854
  41   1.0000      -0.534629       -14.5480
  42   1.0000      -0.504633       -13.7318
  43   1.0000      -0.480277       -13.0690
  44   1.0000      -0.471687       -12.8353
  45   1.0000      -0.470717       -12.8089
  46   1.0000      -0.464484       -12.6393
  47   1.0000      -0.453182       -12.3317
  48   1.0000      -0.436149       -11.8682
  49   1.0000      -0.435024       -11.8376
  50   1.0000      -0.423869       -11.5341
  51   1.0000      -0.423574       -11.5260
  52   1.0000      -0.422770       -11.5042
  53   1.0000      -0.420014       -11.4292
  54   1.0000      -0.418274       -11.3818
  55   1.0000      -0.411156       -11.1881
  56   1.0000      -0.406043       -11.0490
  57   1.0000      -0.379904       -10.3377
  58   1.0000      -0.372857       -10.1459
  59   1.0000      -0.371217       -10.1013
  60   1.0000      -0.364173        -9.9096
  61   1.0000      -0.361519        -9.8374
  62   1.0000      -0.358804        -9.7635
  63   1.0000      -0.358728        -9.7615
  64   1.0000      -0.350514        -9.5380
  65   1.0000      -0.342185        -9.3113
  66   1.0000      -0.331092        -9.0095
  67   1.0000      -0.329763        -8.9733
  68   1.0000      -0.326105        -8.8738
  69   1.0000      -0.324824        -8.8389
  70   1.0000      -0.324454        -8.8288
  71   1.0000      -0.318798        -8.6749
  72   1.0000      -0.310067        -8.4373
  73   1.0000      -0.265789        -7.2325
  74   1.0000      -0.264845        -7.2068
  75   1.0000      -0.256523        -6.9803
  76   1.0000      -0.242222        -6.5912
  77   1.0000      -0.206007        -5.6057
  78   0.0000      -0.083793        -2.2801
  79   0.0000      -0.047830        -1.3015
  80   0.0000      -0.013573        -0.3693
  81   0.0000      -0.006571        -0.1788
  82   0.0000       0.007340         0.1997

MULLIKEN ATOMIC CHARGES AND SPIN POPULATIONS
--------------------------------------------
   0 C :   -0.363598    0.014910
   1 C :   -0.333763    1.022178
   2 C :    0.487204   -0.082607
   3 C :   -0.416841    0.053355
   4 C :    0.521383   -0.034377
   5 C :    0.217892    0.057524
   6 C :   -0.218361   -0.078152
   7 H :    0.135752    0.011383
   8 H :    0.128151    0.021591
   9 C :   -0.372499    0.029503
  10 H :    0.152245   -0.001279
  11 H :    0.152313   -0.001280
  12 C :   -0.264685    0.000905
  13 H :    0.143720    0.000053
  14 H :    0.143668    0.000054
  15 C :   -0.265275    0.000126
  16 H :    0.144332   -0.000013
  17 H :    0.144379   -0.000013
  18 C :   -0.509340    0.000126
  19 H :    0.159814   -0.000010
  20 H :    0.159802   -0.000010
  21 C :   -0.341111    0.006787
  22 H :    0.154863    0.001661
  23 H :    0.154780    0.001658
  24 C :   -0.273237    0.000029
  25 H :    0.141788    0.000165
  26 H :    0.141808    0.000165
  27 C :   -0.265792    0.000113
  28 H :    0.144669   -0.000016
  29 H :    0.144637   -0.000016
  30 C :   -0.510488   -0.000031
  31 H :    0.159654    0.000001
  32 H :    0.159667    0.000001
  33 C :   -0.311942   -0.019340
  34 H :    0.144985    0.000023
  35 H :    0.144591   -0.000009
  36 C :    0.590922    0.004043
  37 C :   -0.281015   -0.004757
  38 C :   -0.098018    0.002503
  39 C :   -0.124787   -0.005208
  40 C :   -0.101129    0.002506
  41 C :   -0.274919   -0.004787
  42 H :    0.106228    0.000295
  43 H :    0.105043   -0.000125
  44 H :    0.118984    0.000248
  45 H :    0.118334    0.000247
  46 H :    0.105191   -0.000124
Sum of atomic charges         :   -0.0000000

LOEWDIN ATOMIC CHARGES AND SPIN POPULATIONS
-------------------------------------------
   0 C :   -0.028822    0.007294
   1 C :    0.010837    0.840326
   2 C :   -0.091241    0.031941
   3 C :   -0.001610    0.044423
   4 C :   -0.075461   -0.026300
   5 C :   -0.034812    0.047597
   6 C :   -0.060871    0.024877
   7 H :    0.060322    0.007944
   8 H :    0.059260    0.015684
   9 C :   -0.050301    0.018084
  10 H :    0.055624   -0.001090
  11 H :    0.055630   -0.001093
  12 C :   -0.079349    0.000401
  13 H :    0.044758    0.000046
  14 H :    0.044745    0.000046
  15 C :   -0.090011    0.000249
  16 H :    0.040896   -0.000004
  17 H :    0.040894   -0.000004
  18 C :   -0.078335    0.000161
  19 H :    0.034006   -0.000004
  20 H :    0.034010   -0.000004
  21 C :   -0.044266    0.006228
  22 H :    0.059420    0.001465
  23 H :    0.059426    0.001464
  24 C :   -0.079924    0.000469
  25 H :    0.044388    0.000087
  26 H :    0.044393    0.000087
  27 C :   -0.090222    0.000397
  28 H :    0.040896    0.000005
  29 H :    0.040895    0.000005
  30 C :   -0.078710    0.000001
  31 H :    0.034015    0.000002
  32 H :    0.034012    0.000002
  33 C :   -0.040635   -0.014412
  34 H :    0.031572    0.000025
  35 H :    0.031602   -0.000006
  36 C :   -0.071244    0.002163
  37 C :   -0.016859   -0.003781
  38 C :   -0.043198    0.001545
  39 C :   -0.044559   -0.004058
  40 C :   -0.043565    0.001543
  41 C :   -0.017398   -0.003772
  42 H :    0.048748   -0.000028
  43 H :    0.049924    0.000011
  44 H :    0.055739   -0.000013
  45 H :    0.055357   -0.000013
  46 H :    0.050022    0.000011

  Mayer bond orders larger than 0.100000
B(  0-C ,  4-C ) :   0.8067 B(  0-C ,  5-C ) :   0.1076 B(  0-C , 33-C ) :   2.5132
B(  1-C ,  2-C ) :   1.2407 B(  1-C ,  3-C ) :   0.1163 B(  1-C ,  5-C ) :   0.1151
B(  1-C ,  6-C ) :   1.3975 B(  2-C ,  3-C ) :   1.4263 B(  2-C ,  9-C ) :   0.9088
B(  3-C ,  4-C ) :   1.4549 B(  3-C ,  7-H ) :   0.9830 B(  4-C ,  5-C ) :   1.4069
B(  5-C ,  6-C ) :   1.3847 B(  5-C , 21-C ) :   0.9759 B(  6-C ,  8-H ) :   0.9717
B(  9-C , 10-H ) :   0.9677 B(  9-C , 11-H ) :   0.9677 B(  9-C , 12-C ) :   1.0175
B( 12-C , 13-H ) :   0.9631 B( 12-C , 14-H ) :   0.9631 B( 12-C , 15-C ) :   0.9838
B( 15-C , 16-H ) :   0.9726 B( 15-C , 17-H ) :   0.9726 B( 15-C , 18-C ) :   0.9558
B( 18-C , 19-H ) :   0.9722 B( 18-C , 20-H ) :   0.9722 B( 18-C , 34-H ) :   0.9682
B( 21-C , 22-H ) :   0.9539 B( 21-C , 23-H ) :   0.9540 B( 21-C , 24-C ) :   1.0151
B( 24-C , 25-H ) :   0.9626 B( 24-C , 26-H ) :   0.9627 B( 24-C , 27-C ) :   0.9889
B( 27-C , 28-H ) :   0.9720 B( 27-C , 29-H ) :   0.9720 B( 27-C , 30-C ) :   0.9547
B( 30-C , 31-H ) :   0.9730 B( 30-C , 32-H ) :   0.9730 B( 30-C , 35-H ) :   0.9675
B( 33-C , 36-C ) :   1.0043 B( 36-C , 37-C ) :   1.3896 B( 36-C , 41-C ) :   1.3854
B( 37-C , 38-C ) :   1.4762 B( 37-C , 44-H ) :   0.9821 B( 38-C , 39-C ) :   1.4524
B( 38-C , 46-H ) :   0.9763 B( 39-C , 40-C ) :   1.4552 B( 39-C , 42-H ) :   0.9662
B( 40-C , 41-C ) :   1.4760 B( 40-C , 43-H ) :   0.9774 B( 41-C , 45-H ) :   0.9801

FINAL SINGLE POINT ENERGY      -852.825204950724

DIPOLE MOMENT
-------------
                                X             Y             Z
Electronic contribution:     15.89531      -0.25162       0.01212
Nuclear contribution   :    -15.66210       0.24861      -0.01201
                        -----------------------------------------
Total Dipole Moment    :      0.23321      -0.00301       0.00012
                        -----------------------------------------
Magnitude (a.u.)       :      0.23323
Magnitude (Debye)      :      0.59281

Rotational constants in cm-1:     0.007003     0.004905     0.002897
Rotational constants in MHz :   209.949858   147.058750    86.853095

                             ****ORCA TERMINATED NORMALLY****
TOTAL RUN TIME: 0 days 0 hours 9 minutes 48 seconds 861 msec
