                         Program Version 5.0.4 -  RELEASE  -
|  1> ! B3LYP cc-pVDZ OPT
|  2> %pal nprocs 16 end
|  3> *XYZFile 0 2 model.xyz
|  4>
|  5>                          ****END OF INPUT****
 Total Charge           Charge          ....    0
 Multiplicity           Mult            ....    2
 Number of Electrons    NEL             ....  157
FINAL SINGLE POINT ENERGY      -852.752248186440
                    ***********************HURRAY********************

CARTESIAN COORDINATES (ANGSTROEM)
---------------------------------
  C      2.831560   -0.005050   -0.008351
  C     -1.314368   -0.014444   -0.013002
  C     -0.703781   -1.259487   -0.014485
  C      0.699337   -1.202602   -0.012648
  C      1.402122    0.024137   -0.009613
  C      0.708095    1.264372   -0.008018
  C     -0.700161    1.218096   -0.009888
  H      1.284026   -2.124251   -0.013666
  H     -1.286086    2.138909   -0.008885
  C     -1.509013   -2.547945   -0.017590
  H     -2.181527   -2.530547   -0.894723
  H     -2.180202   -2.535583    0.860672
  C     -0.707209   -3.852059   -0.021818
  H     -0.043807   -3.879795   -0.905932
  H     -0.044192   -3.885744    0.862381
  C     -1.601358   -5.097661   -0.026108
  H     -2.267877   -5.070414    0.855980
  H     -2.266636   -5.065212   -0.908957
  C     -0.809194   -6.407509   -0.029431
  H     -0.160822   -6.485890    0.860367
  H     -0.159097   -6.480321   -0.918444
  C      1.482955    2.567860   -0.004606
  H      2.158864    2.564104    0.870565
  H      2.159597    2.568248   -0.879235
  C      0.661643    3.859797   -0.001910
  H     -0.000688    3.885703   -0.886980
  H     -0.002286    3.881001    0.882084
  C      1.539602    5.117171    0.002176
  H      2.204838    5.093143    0.885271
  H      2.206756    5.097530   -0.879578
  C      0.731157    6.416961    0.004549
  H      0.079858    6.482156    0.893279
  H      0.082162    6.486851   -0.885508
  C      4.053049   -0.040501   -0.009430
  H     -1.477612   -7.283785   -0.032834
  H      1.388386    7.301667    0.007743
  C      5.480881   -0.086180   -0.008637
  C      6.160755   -1.323809   -0.010717
  C      7.554788   -1.364056   -0.009920
  C      8.296935   -0.177568   -0.007087
  C      7.633420    1.054720   -0.005057
  C      6.239755    1.104680   -0.005839
  H      9.388871   -0.213318   -0.006476
  H      8.206794    1.984947   -0.002851
  H      5.580332   -2.248368   -0.012945
  H      5.720631    2.065028   -0.004274
  H      8.066893   -2.329380   -0.011540

 Multiplicity           Mult            ....    2
 Number of Electrons    NEL             ....  157
 Basis Dimension        Dim             ....  433

ORBITAL ENERGIES
----------------
                 SPIN UP ORBITALS
  NO   OCC          E(Eh)            E(eV)
   0   1.0000     -10.213992      -277.9369
   1   1.0000     -10.206993      -277.7464
   2   1.0000     -10.203563      -277.6531
   3   1.0000     -10.203403      -277.6487
   4   1.0000     -10.199727      -277.5487
   5   1.0000     -10.194580      -277.4086
   6   1.0000     -10.194430      -277.4045
   7   1.0000     -10.194350      -277.4024
   8   1.0000     -10.193600      -277.3819
   9   1.0000     -10.193262      -277.3728
  10   1.0000     -10.192951      -277.3643
  11   1.0000     -10.191413      -277.3224
  12   1.0000     -10.190027      -277.2847
  13   1.0000     -10.186683      -277.1937
  14   1.0000     -10.186063      -277.1769
  15   1.0000     -10.183836      -277.1163
  16   1.0000     -10.182762      -277.0870
  17   1.0000     -10.182593      -277.0825
  18   1.0000     -10.182412      -277.0775
  19   1.0000     -10.182238      -277.0728
  20   1.0000     -10.176304      -276.9113
  21   1.0000     -10.176135      -276.9067
  22   1.0000      -0.870701       -23.6930
  23   1.0000      -0.860725       -23.4215
  24   1.0000      -0.813853       -22.1461
  25   1.0000      -0.795865       -21.6566
  26   1.0000      -0.786782       -21.4094
  27   1.0000      -0.769846       -20.9486
  28   1.0000      -0.760149       -20.6847
  29   1.0000      -0.748581       -20.3699
  30   1.0000      -0.732259       -19.9258
  31   1.0000      -0.712422       -19.3860
  32   1.0000      -0.698272       -19.0010
  33   1.0000      -0.652730       -17.7617
  34   1.0000      -0.630627       -17.1602
  35   1.0000      -0.617621       -16.8063
  36   1.0000      -0.606749       -16.5105
  37   1.0000      -0.605572       -16.4785
  38   1.0000      -0.582032       -15.8379
  39   1.0000      -0.577104       -15.7038
  40   1.0000      -0.563197       -15.3254
  41   1.0000      -0.534625       -14.5479
  42   1.0000      -0.506513       -13.7829
  43   1.0000      -0.477804       -13.0017
  44   1.0000      -0.471874       -12.8404
  45   1.0000      -0.471411       -12.8278
  46   1.0000      -0.470329       -12.7983
  47   1.0000      -0.455213       -12.3870
  48   1.0000      -0.441085       -12.0025
  49   1.0000      -0.434777       -11.8309
  50   1.0000      -0.427540       -11.6340
  51   1.0000      -0.423900       -11.5349
  52   1.0000      -0.422496       -11.4967
  53   1.0000      -0.421909       -11.4807
  54   1.0000      -0.417066       -11.3490
  55   1.0000      -0.413689       -11.2571
  56   1.0000      -0.411813       -11.2060
  57   1.0000      -0.381151       -10.3716
  58   1.0000      -0.378462       -10.2985
  59   1.0000      -0.372646       -10.1402
  60   1.0000      -0.366057        -9.9609
  61   1.0000      -0.364280        -9.9126
  62   1.0000      -0.358009        -9.7419
  63   1.0000      -0.357012        -9.7148
  64   1.0000      -0.348173        -9.4743
  65   1.0000      -0.341190        -9.2842
  66   1.0000      -0.334043        -9.0898
  67   1.0000      -0.331766        -9.0278
  68   1.0000      -0.327319        -8.9068
  69   1.0000      -0.324802        -8.8383
  70   1.0000      -0.322888        -8.7862
  71   1.0000      -0.322857        -8.7854
  72   1.0000      -0.312223        -8.4960
  73   1.0000      -0.268075        -7.2947
  74   1.0000      -0.265670        -7.2292
  75   1.0000      -0.256414        -6.9774
  76   1.0000      -0.242194        -6.5904
  77   1.0000      -0.235959        -6.4208
  78   1.0000      -0.209143        -5.6911
  79   0.0000      -0.049511        -1.3473
  80   0.0000      -0.008149        -0.2218
  81   0.0000      -0.003242        -0.0882
  82   0.0000       0.006348         0.1727
  83   0.0000       0.048464         1.3188

                 SPIN DOWN ORBITALS
  NO   OCC          E(Eh)            E(eV)
   0   1.0000     -10.213923      -277.9350
   1   1.0000     -10.207589      -277.7626
   2   1.0000     -10.202180      -277.6154
   3   1.0000     -10.199809      -277.5509
   4   1.0000     -10.194648      -277.4105
   5   1.0000     -10.194497      -277.4064
   6   1.0000     -10.193626      -277.3827
   7   1.0000     -10.193234      -277.3720
   8   1.0000     -10.193133      -277.3692
   9   1.0000     -10.192963      -277.3646
  10   1.0000     -10.191662      -277.3292
  11   1.0000     -10.189575      -277.2724
  12   1.0000     -10.188050      -277.2309
  13   1.0000     -10.186551      -277.1902
  14   1.0000     -10.186008      -277.1754
  15   1.0000     -10.183952      -277.1194
  16   1.0000     -10.182757      -277.0869
  17   1.0000     -10.182588      -277.0823
  18   1.0000     -10.182403      -277.0773
  19   1.0000     -10.182230      -277.0726
  20   1.0000     -10.176300      -276.9112
  21   1.0000     -10.176136      -276.9067
  22   1.0000      -0.865007       -23.5380
  23   1.0000      -0.860474       -23.4147
  24   1.0000      -0.812111       -22.0987
  25   1.0000      -0.795659       -21.6510
  26   1.0000      -0.784507       -21.3475
  27   1.0000      -0.768028       -20.8991
  28   1.0000      -0.756234       -20.5782
  29   1.0000      -0.748645       -20.3717
  30   1.0000      -0.730396       -19.8751
  31   1.0000      -0.709977       -19.3195
  32   1.0000      -0.696249       -18.9459
  33   1.0000      -0.651576       -17.7303
  34   1.0000      -0.628753       -17.1092
  35   1.0000      -0.615236       -16.7414
  36   1.0000      -0.606729       -16.5099
  37   1.0000      -0.600886       -16.3509
  38   1.0000      -0.580524       -15.7969
  39   1.0000      -0.572019       -15.5654
  40   1.0000      -0.560984       -15.2652
  41   1.0000      -0.533890       -14.5279
  42   1.0000      -0.505034       -13.7427
  43   1.0000      -0.477411       -12.9910
  44   1.0000      -0.471325       -12.8254
  45   1.0000      -0.470246       -12.7960
  46   1.0000      -0.466773       -12.7015
  47   1.0000      -0.455144       -12.3851
  48   1.0000      -0.434710       -11.8291
  49   1.0000      -0.433424       -11.7941
  50   1.0000      -0.425346       -11.5743
  51   1.0000      -0.422459       -11.4957
  52   1.0000      -0.422034       -11.4841
  53   1.0000      -0.421887       -11.4801
  54   1.0000      -0.416954       -11.3459
  55   1.0000      -0.411820       -11.2062
  56   1.0000      -0.406901       -11.0724
  57   1.0000      -0.381220       -10.3735
  58   1.0000      -0.374400       -10.1880
  59   1.0000      -0.371689       -10.1142
  60   1.0000      -0.365024        -9.9328
  61   1.0000      -0.361412        -9.8345
  62   1.0000      -0.357614        -9.7312
  63   1.0000      -0.356829        -9.7098
  64   1.0000      -0.348182        -9.4745
  65   1.0000      -0.340724        -9.2716
  66   1.0000      -0.333389        -9.0720
  67   1.0000      -0.330456        -8.9922
  68   1.0000      -0.326774        -8.8920
  69   1.0000      -0.324586        -8.8324
  70   1.0000      -0.322796        -8.7837
  71   1.0000      -0.321110        -8.7378
  72   1.0000      -0.310638        -8.4529
  73   1.0000      -0.265346        -7.2204
  74   1.0000      -0.265149        -7.2151
  75   1.0000      -0.256595        -6.9823
  76   1.0000      -0.242262        -6.5923
  77   1.0000      -0.205492        -5.5917
  78   0.0000      -0.077376        -2.1055
  79   0.0000      -0.045355        -1.2342
  80   0.0000      -0.008307        -0.2260
  81   0.0000      -0.003601        -0.0980
  82   0.0000       0.011101         0.3021

MULLIKEN ATOMIC CHARGES AND SPIN POPULATIONS
--------------------------------------------
   0 C :    0.233502    0.013960
   1 C :   -0.135647    0.999774
   2 C :   -0.015119   -0.067618
   3 C :    0.024812    0.058253
   4 C :   -0.165557   -0.040347
   5 C :   -0.100367    0.065161
   6 C :    0.058951   -0.066378
   7 H :   -0.050434    0.013227
   8 H :   -0.021947    0.018930
   9 C :    0.047508    0.015965
  10 H :    0.025684    0.000721
  11 H :    0.025782    0.000702
  12 C :   -0.042222    0.000563
  13 H :    0.016412   -0.000010
  14 H :    0.016447   -0.000009
  15 C :   -0.025849    0.000311
  16 H :    0.006193   -0.000031
  17 H :    0.006204   -0.000031
  18 C :    0.000991    0.000223
  19 H :    0.017120   -0.000015
  20 H :    0.017116   -0.000015
  21 C :    0.039794    0.005787
  22 H :    0.032650    0.002219
  23 H :    0.032668    0.002215
  24 C :   -0.034902    0.000340
  25 H :    0.015058    0.000094
  26 H :    0.015048    0.000095
  27 C :   -0.025654    0.000085
  28 H :    0.005663    0.000060
  29 H :    0.005663    0.000060
  30 C :    0.003741    0.000007
  31 H :    0.016947    0.000003
  32 H :    0.016954    0.000003
  33 C :    0.156018   -0.019730
  34 H :    0.012897    0.000030
  35 H :    0.012689   -0.000011
  36 C :   -0.247371    0.004586
  37 C :    0.030202   -0.004757
  38 C :    0.040668    0.002513
  39 C :    0.032492   -0.005105
  40 C :    0.040393    0.002509
  41 C :    0.027724   -0.004757
  42 H :   -0.028731    0.000235
  43 H :   -0.028649   -0.000101
  44 H :   -0.041790    0.000188
  45 H :   -0.041207    0.000196
  46 H :   -0.028546   -0.000101
Sum of atomic charges         :   -0.0000000

LOEWDIN ATOMIC CHARGES AND SPIN POPULATIONS
-------------------------------------------
   0 C :   -0.016938    0.007190
   1 C :    0.024105    0.855196
   2 C :   -0.054404    0.022913
   3 C :    0.002006    0.047233
   4 C :   -0.060584   -0.025282
   5 C :    0.002134    0.048982
   6 C :   -0.057914    0.019073
   7 H :    0.028544    0.008229
   8 H :    0.032106    0.012898
   9 C :   -0.032378    0.011902
  10 H :    0.036677    0.000306
  11 H :    0.036710    0.000288
  12 C :   -0.044243    0.000474
  13 H :    0.024606    0.000039
  14 H :    0.024598    0.000039
  15 C :   -0.047235    0.000233
  16 H :    0.023997   -0.000012
  17 H :    0.024001   -0.000012
  18 C :   -0.067385    0.000161
  19 H :    0.025245   -0.000003
  20 H :    0.025248   -0.000003
  21 C :   -0.035545    0.005961
  22 H :    0.039111    0.001831
  23 H :    0.039125    0.001829
  24 C :   -0.043662    0.000494
  25 H :    0.024041    0.000077
  26 H :    0.024043    0.000077
  27 C :   -0.047108    0.000230
  28 H :    0.024005    0.000051
  29 H :    0.024004    0.000050
  30 C :   -0.067511   -0.000004
  31 H :    0.025157    0.000003
  32 H :    0.025156    0.000003
  33 C :   -0.028346   -0.014234
  34 H :    0.027578    0.000029
  35 H :    0.027512   -0.000007
  36 C :   -0.052733    0.002090
  37 C :   -0.002699   -0.003678
  38 C :   -0.024214    0.001490
  39 C :   -0.023113   -0.003940
  40 C :   -0.024391    0.001487
  41 C :   -0.003688   -0.003673
  42 H :    0.027635   -0.000015
  43 H :    0.028858    0.000005
  44 H :    0.029559   -0.000006
  45 H :    0.029395   -0.000002
  46 H :    0.028937    0.000006

  Mayer bond orders larger than 0.100000
B(  0-C ,  4-C ) :   0.9037 B(  0-C , 33-C ) :   1.7834 B(  0-C , 36-C ) :  -0.1630
B(  1-C ,  2-C ) :   1.3941 B(  1-C ,  6-C ) :   1.4445 B(  2-C ,  3-C ) :   1.4325
B(  2-C ,  9-C ) :   1.0450 B(  3-C ,  4-C ) :   1.4172 B(  3-C ,  7-H ) :   0.9222
B(  4-C ,  5-C ) :   1.4134 B(  4-C , 33-C ) :  -0.1015 B(  5-C ,  6-C ) :   1.4548
B(  5-C , 21-C ) :   1.0884 B(  6-C ,  8-H ) :   0.9100 B(  9-C , 10-H ) :   0.9171
B(  9-C , 11-H ) :   0.9170 B(  9-C , 12-C ) :   1.1023 B( 12-C , 13-H ) :   0.9310
B( 12-C , 14-H ) :   0.9309 B( 12-C , 15-C ) :   1.0754 B( 15-C , 16-H ) :   0.9415
B( 15-C , 17-H ) :   0.9415 B( 15-C , 18-C ) :   1.1056 B( 18-C , 19-H ) :   0.9666
B( 18-C , 20-H ) :   0.9666 B( 18-C , 34-H ) :   0.9622 B( 21-C , 22-H ) :   0.8984
B( 21-C , 23-H ) :   0.8984 B( 21-C , 24-C ) :   1.1010 B( 24-C , 25-H ) :   0.9298
B( 24-C , 26-H ) :   0.9298 B( 24-C , 27-C ) :   1.0758 B( 27-C , 28-H ) :   0.9412
B( 27-C , 29-H ) :   0.9412 B( 27-C , 30-C ) :   1.1061 B( 30-C , 31-H ) :   0.9662
B( 30-C , 32-H ) :   0.9663 B( 30-C , 35-H ) :   0.9617 B( 33-C , 36-C ) :   0.9222
B( 36-C , 37-C ) :   1.4427 B( 36-C , 41-C ) :   1.4397 B( 37-C , 38-C ) :   1.4697
B( 37-C , 44-H ) :   0.9399 B( 38-C , 39-C ) :   1.4446 B( 38-C , 46-H ) :   0.9379
B( 39-C , 40-C ) :   1.4440 B( 39-C , 42-H ) :   0.9432 B( 40-C , 41-C ) :   1.4699
B( 40-C , 43-H ) :   0.9379 B( 41-C , 45-H ) :   0.9403

FINAL SINGLE POINT ENERGY      -852.752248306515

DIPOLE MOMENT
-------------
                                X             Y             Z
Electronic contribution:     15.81967      -0.23800       0.01391
Nuclear contribution   :    -15.61999       0.23141      -0.01374
                        -----------------------------------------
Total Dipole Moment    :      0.19968      -0.00659       0.00017
                        -----------------------------------------
Magnitude (a.u.)       :      0.19979
Magnitude (Debye)      :      0.50783

Rotational constants in cm-1:     0.007051     0.004917     0.002910
Rotational constants in MHz :   211.388096   147.419085    87.227783

                             ****ORCA TERMINATED NORMALLY****
TOTAL RUN TIME: 0 days 0 hours 3 minutes 30 seconds 654 msec
