                         Program Version 5.0.4 -  RELEASE  -
|  1> ! B3LYP cc-pVDZ AUTOAUX
|  2> %pal nprocs 16 end
|  3> *XYZFile 0 2 opt.xyz
|  4> %EPRNMR
|  5>         GTENSOR   TRUE
|  6>         NUCLEI    = ALL H {SHIFT, AISO, ADIP, AORB}
|  7>         ORI       CenterOfElCharge
|  8> END
|  9>
| 10>                          ****END OF INPUT****

CARTESIAN COORDINATES (ANGSTROEM)
---------------------------------
  C     -2.631597    0.129889    0.152946
  C      1.575864   -0.218018   -0.504992
  C      0.963822    1.083546   -0.471921
  C     -0.443340    1.138551   -0.248119
  C     -1.220279   -0.005180   -0.065902
  C     -0.611010   -1.294596   -0.103795
  C      0.773999   -1.347005   -0.323995
  H     -0.932113    2.114973   -0.219804
  H      1.262338   -2.323049   -0.360688
  C      1.682287    2.282286   -0.654363
  H      2.755459    2.297223   -0.838416
  H      1.162943    3.241730   -0.622224
  C      3.065834   -0.388546   -0.698656
  H      3.262023   -1.404533   -1.082470
  H      3.432977    0.306369   -1.474054
  C      3.887515   -0.182955    0.591465
  H      3.688811    0.825725    0.993912
  H      3.528649   -0.892624    1.358202
  C      5.390342   -0.369448    0.371431
  H      5.781137    0.351469   -0.367554
  H      5.618742   -1.381978   -0.004350
  C     -1.464202   -2.531527    0.084086
  H     -2.003034   -2.436934    1.045488
  H     -2.265137   -2.516675   -0.678829
  C     -0.750622   -3.885261    0.036886
  H     -0.229468   -4.002281   -0.931186
  H      0.033199   -3.924469    0.815700
  C     -1.711359   -5.064693    0.232430
  H     -2.238010   -4.948281    1.197733
  H     -2.495639   -5.026358   -0.546048
  C     -1.012747   -6.426102    0.189580
  H     -0.246895   -6.508811    0.980041
  H     -0.505961   -6.586065   -0.777902
  C     -3.826626    0.249482    0.342032
  H     -4.879280    0.361416    0.513224
  H      5.954180   -0.226136    1.307646
  H     -1.728336   -7.252292    0.331363

 Total Charge           Charge          ....    0
 Multiplicity           Mult            ....    2
 Number of Electrons    NEL             ....  117
 Basis Dimension        Dim             ....  329

ORBITAL ENERGIES
----------------
                 SPIN UP ORBITALS
  NO   OCC          E(Eh)            E(eV)
   0   1.0000     -10.206339      -277.7286
   1   1.0000     -10.201064      -277.5851
   2   1.0000     -10.197170      -277.4791
   3   1.0000     -10.195347      -277.4295
   4   1.0000     -10.192922      -277.3635
   5   1.0000     -10.189994      -277.2838
   6   1.0000     -10.188507      -277.2434
   7   1.0000     -10.186254      -277.1821
   8   1.0000     -10.185460      -277.1605
   9   1.0000     -10.184228      -277.1269
  10   1.0000     -10.182726      -277.0861
  11   1.0000     -10.182423      -277.0778
  12   1.0000     -10.181718      -277.0586
  13   1.0000     -10.181530      -277.0535
  14   1.0000     -10.177829      -276.9528
  15   1.0000     -10.175927      -276.9011
  16   1.0000      -0.869090       -23.6491
  17   1.0000      -0.814418       -22.1614
  18   1.0000      -0.797034       -21.6884
  19   1.0000      -0.776522       -21.1302
  20   1.0000      -0.764103       -20.7923
  21   1.0000      -0.731959       -19.9176
  22   1.0000      -0.723696       -19.6928
  23   1.0000      -0.684533       -18.6271
  24   1.0000      -0.669485       -18.2176
  25   1.0000      -0.624255       -16.9869
  26   1.0000      -0.611206       -16.6318
  27   1.0000      -0.591186       -16.0870
  28   1.0000      -0.576242       -15.6803
  29   1.0000      -0.564736       -15.3673
  30   1.0000      -0.524708       -14.2780
  31   1.0000      -0.492857       -13.4113
  32   1.0000      -0.489565       -13.3217
  33   1.0000      -0.470230       -12.7956
  34   1.0000      -0.457462       -12.4482
  35   1.0000      -0.447710       -12.1828
  36   1.0000      -0.427975       -11.6458
  37   1.0000      -0.421694       -11.4749
  38   1.0000      -0.421057       -11.4576
  39   1.0000      -0.418224       -11.3805
  40   1.0000      -0.411338       -11.1931
  41   1.0000      -0.399751       -10.8778
  42   1.0000      -0.387023       -10.5314
  43   1.0000      -0.379784       -10.3344
  44   1.0000      -0.374485       -10.1903
  45   1.0000      -0.367097        -9.9892
  46   1.0000      -0.351875        -9.5750
  47   1.0000      -0.350826        -9.5465
  48   1.0000      -0.339304        -9.2329
  49   1.0000      -0.335091        -9.1183
  50   1.0000      -0.328370        -8.9354
  51   1.0000      -0.323371        -8.7994
  52   1.0000      -0.322504        -8.7758
  53   1.0000      -0.321109        -8.7378
  54   1.0000      -0.305898        -8.3239
  55   1.0000      -0.275859        -7.5065
  56   1.0000      -0.272008        -7.4017
  57   1.0000      -0.233063        -6.3420
  58   1.0000      -0.177587        -4.8324
  59   0.0000      -0.030414        -0.8276
  60   0.0000       0.011715         0.3188
  61   0.0000       0.047299         1.2871
  62   0.0000       0.058679         1.5967
  63   0.0000       0.063092         1.7168

                 SPIN DOWN ORBITALS
  NO   OCC          E(Eh)            E(eV)
   0   1.0000     -10.207980      -277.7733
   1   1.0000     -10.197871      -277.4982
   2   1.0000     -10.197246      -277.4812
   3   1.0000     -10.193540      -277.3803
   4   1.0000     -10.189547      -277.2717
   5   1.0000     -10.188105      -277.2324
   6   1.0000     -10.186489      -277.1885
   7   1.0000     -10.185684      -277.1666
   8   1.0000     -10.184378      -277.1310
   9   1.0000     -10.183954      -277.1195
  10   1.0000     -10.183048      -277.0948
  11   1.0000     -10.181715      -277.0586
  12   1.0000     -10.181529      -277.0535
  13   1.0000     -10.179906      -277.0093
  14   1.0000     -10.177815      -276.9524
  15   1.0000     -10.175929      -276.9011
  16   1.0000      -0.865364       -23.5477
  17   1.0000      -0.811270       -22.0758
  18   1.0000      -0.796149       -21.6643
  19   1.0000      -0.773174       -21.0391
  20   1.0000      -0.762613       -20.7518
  21   1.0000      -0.729738       -19.8572
  22   1.0000      -0.720290       -19.6001
  23   1.0000      -0.682246       -18.5649
  24   1.0000      -0.662253       -18.0208
  25   1.0000      -0.617849       -16.8125
  26   1.0000      -0.608653       -16.5623
  27   1.0000      -0.589478       -16.0405
  28   1.0000      -0.575348       -15.6560
  29   1.0000      -0.563219       -15.3260
  30   1.0000      -0.522762       -14.2251
  31   1.0000      -0.491316       -13.3694
  32   1.0000      -0.487655       -13.2698
  33   1.0000      -0.469323       -12.7709
  34   1.0000      -0.455333       -12.3902
  35   1.0000      -0.447128       -12.1670
  36   1.0000      -0.426539       -11.6067
  37   1.0000      -0.419898       -11.4260
  38   1.0000      -0.418615       -11.3911
  39   1.0000      -0.416173       -11.3246
  40   1.0000      -0.409350       -11.1390
  41   1.0000      -0.396460       -10.7882
  42   1.0000      -0.384152       -10.4533
  43   1.0000      -0.377299       -10.2668
  44   1.0000      -0.371837       -10.1182
  45   1.0000      -0.365856        -9.9555
  46   1.0000      -0.350810        -9.5460
  47   1.0000      -0.347625        -9.4594
  48   1.0000      -0.337809        -9.1923
  49   1.0000      -0.334411        -9.0998
  50   1.0000      -0.327762        -8.9189
  51   1.0000      -0.322555        -8.7772
  52   1.0000      -0.321715        -8.7543
  53   1.0000      -0.320190        -8.7128
  54   1.0000      -0.301257        -8.1976
  55   1.0000      -0.271926        -7.3995
  56   1.0000      -0.257972        -7.0198
  57   1.0000      -0.224915        -6.1203
  58   0.0000      -0.081184        -2.2091
  59   0.0000      -0.019874        -0.5408
  60   0.0000       0.028475         0.7749
  61   0.0000       0.047834         1.3016
  62   0.0000       0.059612         1.6221

MULLIKEN ATOMIC CHARGES AND SPIN POPULATIONS
--------------------------------------------
   0 C :    0.618170    0.029460
   1 C :   -0.061932    0.245823
   2 C :   -0.046137   -0.170943
   3 C :    0.024509    0.228015
   4 C :   -0.047084   -0.112618
   5 C :   -0.073278    0.262571
   6 C :    0.030413   -0.125925
   7 H :   -0.051884   -0.009558
   8 H :   -0.062804    0.004566
   9 C :    0.042153    0.748336
  10 H :    0.011828   -0.030038
  11 H :    0.007926   -0.029514
  12 C :    0.051951   -0.018348
  13 H :   -0.000704    0.002444
  14 H :    0.008294    0.006869
  15 C :   -0.029397    0.011832
  16 H :    0.011913   -0.000704
  17 H :    0.007126   -0.000240
  18 C :   -0.006386    0.001077
  19 H :    0.016484   -0.000032
  20 H :    0.016903    0.000228
  21 C :    0.044281   -0.020751
  22 H :    0.031816    0.011180
  23 H :    0.032008    0.011401
  24 C :   -0.036005    0.000964
  25 H :    0.015313    0.000212
  26 H :    0.014396    0.000215
  27 C :   -0.024302    0.000023
  28 H :    0.006023    0.000060
  29 H :    0.006315    0.000060
  30 C :    0.003138   -0.000090
  31 H :    0.016310    0.000027
  32 H :    0.016532    0.000025
  33 C :   -0.592098   -0.048883
  34 H :   -0.030629    0.001939
  35 H :    0.015723    0.000321
  36 H :    0.013114   -0.000006
Sum of atomic charges         :   -0.0000000

LOEWDIN ATOMIC CHARGES AND SPIN POPULATIONS
-------------------------------------------
   0 C :   -0.001396    0.013787
   1 C :   -0.000554    0.182125
   2 C :   -0.054639   -0.072376
   3 C :    0.017716    0.177029
   4 C :   -0.063770   -0.059349
   5 C :    0.000627    0.194765
   6 C :   -0.032362   -0.066673
   7 H :    0.029358    0.000013
   8 H :    0.023746   -0.000531
   9 C :   -0.018710    0.624940
  10 H :    0.015961    0.003572
  11 H :    0.019236    0.002338
  12 C :   -0.032779    0.000351
  13 H :    0.028898    0.001592
  14 H :    0.027702    0.004314
  15 C :   -0.043716    0.009875
  16 H :    0.024577    0.000452
  17 H :    0.025133    0.000207
  18 C :   -0.068434    0.000966
  19 H :    0.025034    0.000022
  20 H :    0.025154    0.000161
  21 C :   -0.035691    0.002529
  22 H :    0.039920    0.008788
  23 H :    0.039998    0.008979
  24 C :   -0.043905    0.000174
  25 H :    0.023593    0.000075
  26 H :    0.023444    0.000077
  27 C :   -0.046984    0.000018
  28 H :    0.024220    0.000098
  29 H :    0.024317    0.000102
  30 C :   -0.067834   -0.000043
  31 H :    0.024830    0.000018
  32 H :    0.024921    0.000017
  33 C :   -0.055596   -0.038610
  34 H :    0.021756   -0.000074
  35 H :    0.028638    0.000280
  36 H :    0.027593   -0.000008

  Mayer bond orders larger than 0.100000
B(  0-C ,  4-C ) :   0.8973 B(  0-C , 33-C ) :   2.1466 B(  1-C ,  2-C ) :   1.2756
B(  1-C ,  6-C ) :   1.4277 B(  1-C , 12-C ) :   1.1089 B(  2-C ,  3-C ) :   1.2640
B(  2-C ,  9-C ) :   1.5109 B(  3-C ,  4-C ) :   1.4584 B(  3-C ,  7-H ) :   0.9255
B(  4-C ,  5-C ) :   1.3542 B(  5-C ,  6-C ) :   1.3833 B(  5-C , 21-C ) :   1.0934
B(  6-C ,  8-H ) :   0.9131 B(  9-C , 10-H ) :   0.9056 B(  9-C , 11-H ) :   0.9121
B( 12-C , 13-H ) :   0.9113 B( 12-C , 14-H ) :   0.9047 B( 12-C , 15-C ) :   1.0597
B( 15-C , 16-H ) :   0.9441 B( 15-C , 17-H ) :   0.9436 B( 15-C , 18-C ) :   1.1014
B( 18-C , 19-H ) :   0.9664 B( 18-C , 20-H ) :   0.9668 B( 18-C , 35-H ) :   0.9640
B( 21-C , 22-H ) :   0.8962 B( 21-C , 23-H ) :   0.8967 B( 21-C , 24-C ) :   1.1023
B( 24-C , 25-H ) :   0.9290 B( 24-C , 26-H ) :   0.9297 B( 24-C , 27-C ) :   1.0756
B( 27-C , 28-H ) :   0.9410 B( 27-C , 29-H ) :   0.9411 B( 27-C , 30-C ) :   1.1059
B( 30-C , 31-H ) :   0.9662 B( 30-C , 32-H ) :   0.9662 B( 30-C , 36-H ) :   0.9618
B( 33-C , 34-H ) :   1.1160

FINAL SINGLE POINT ENERGY      -621.857542479029

DIPOLE MOMENT
-------------
                                X             Y             Z
Electronic contribution:    -11.73248      14.80497      -1.69663
Nuclear contribution   :     11.95169     -15.07875       1.72848
                        -----------------------------------------
Total Dipole Moment    :      0.21920      -0.27378       0.03185
                        -----------------------------------------
Magnitude (a.u.)       :      0.35216
Magnitude (Debye)      :      0.89513

Rotational constants in cm-1:     0.018509     0.010263     0.006806
Rotational constants in MHz :   554.888538   307.670825   204.032667

CHEMICAL SHIELDING SUMMARY (ppm)  --  Orbital contribution
----------------------------------------------------------

  Nucleus  Element    Isotropic     Anisotropy
  -------  -------  ------------   ------------
      7       H            6.786         40.493
      8       H           82.355         30.368
     10       H            3.649         15.137
     11       H          -15.265          6.167
     13       H           64.753         15.896
     14       H           24.955         37.568
     16       H           42.837         23.203
     17       H           82.714          9.269
     19       H           -9.212         23.788
     20       H           25.698         12.564
     22       H           56.741         40.483
     23       H           49.501         41.777
     25       H           78.034         14.553
     26       H           85.132          9.794
     28       H           27.873         21.212
     29       H           21.726         21.485
     31       H           35.193         10.986
     32       H           29.717         13.534
     34       H          -58.294        -18.671
     35       H          -22.036         27.483
     36       H          -51.061         13.209

                             ****ORCA TERMINATED NORMALLY****
TOTAL RUN TIME: 0 days 0 hours 24 minutes 42 seconds 474 msec
