                         Program Version 5.0.4 -  RELEASE  -
|  1> ! B3LYP cc-pVDZ AUTOAUX
|  2> %pal nprocs 16 end
|  3> *XYZFile 0 2 opt_cc-pVDZ.xyz
|  4> %EPRNMR
|  5>         GTENSOR   TRUE
|  6>         NUCLEI    = ALL H {SHIFT, AISO, ADIP, AORB}
|  7>         ORI       GIAO
|  8> END
|  9>
| 10>                          ****END OF INPUT****

CARTESIAN COORDINATES (ANGSTROEM)
---------------------------------
  C     -2.631254    0.130040    0.153618
  C      1.576073   -0.218268   -0.504915
  C      0.963883    1.083255   -0.473502
  C     -0.443221    1.138381   -0.249565
  C     -1.220096   -0.005181   -0.066164
  C     -0.610813   -1.294615   -0.103079
  C      0.774257   -1.347118   -0.322980
  H     -0.932054    2.114791   -0.222291
  H      1.262593   -2.323151   -0.358854
  C      1.682181    2.281840   -0.657448
  H      2.755140    2.296584   -0.842674
  H      1.162652    3.241230   -0.627097
  C      3.066103   -0.388858   -0.697740
  H      3.262481   -1.405155   -1.080710
  H      3.433529    0.305528   -1.473508
  C      3.887275   -0.182432    0.592554
  H      3.688368    0.826444    0.994430
  H      3.528201   -0.891693    1.359533
  C      5.390182   -0.368914    0.373185
  H      5.781250    0.351972   -0.365653
  H      5.618721   -1.381441   -0.002445
  C     -1.463893   -2.531456    0.086049
  H     -2.000569   -2.437299    1.048740
  H     -2.266577   -2.516022   -0.675150
  C     -0.750675   -3.885280    0.036580
  H     -0.231388   -4.001584   -0.932616
  H      0.034651   -3.925419    0.813943
  C     -1.711369   -5.064580    0.233027
  H     -2.235633   -4.949112    1.199775
  H     -2.497582   -5.025078   -0.543585
  C     -1.013273   -6.426080    0.186891
  H     -0.245260   -6.509857    0.975232
  H     -0.509185   -6.585150   -0.782141
  C     -3.826218    0.249365    0.343367
  H     -4.878905    0.360833    0.514750
  H      5.953593   -0.225504    1.309596
  H     -1.728700   -7.252170    0.329745

 Total Charge           Charge          ....    0
 Multiplicity           Mult            ....    2
 Number of Electrons    NEL             ....  117
 Basis Dimension        Dim             ....  329

ORBITAL ENERGIES
----------------
                 SPIN UP ORBITALS
  NO   OCC          E(Eh)            E(eV)
   0   1.0000     -10.206370      -277.7294
   1   1.0000     -10.201077      -277.5854
   2   1.0000     -10.197170      -277.4791
   3   1.0000     -10.195332      -277.4291
   4   1.0000     -10.192894      -277.3628
   5   1.0000     -10.189980      -277.2835
   6   1.0000     -10.188508      -277.2434
   7   1.0000     -10.186248      -277.1819
   8   1.0000     -10.185476      -277.1609
   9   1.0000     -10.184198      -277.1261
  10   1.0000     -10.182722      -277.0860
  11   1.0000     -10.182420      -277.0777
  12   1.0000     -10.181721      -277.0587
  13   1.0000     -10.181535      -277.0537
  14   1.0000     -10.177813      -276.9524
  15   1.0000     -10.175934      -276.9012
  16   1.0000      -0.869098       -23.6494
  17   1.0000      -0.814421       -22.1615
  18   1.0000      -0.797038       -21.6885
  19   1.0000      -0.776526       -21.1303
  20   1.0000      -0.764104       -20.7923
  21   1.0000      -0.731959       -19.9176
  22   1.0000      -0.723698       -19.6928
  23   1.0000      -0.684532       -18.6271
  24   1.0000      -0.669483       -18.2176
  25   1.0000      -0.624249       -16.9867
  26   1.0000      -0.611209       -16.6318
  27   1.0000      -0.591182       -16.0869
  28   1.0000      -0.576230       -15.6800
  29   1.0000      -0.564735       -15.3672
  30   1.0000      -0.524706       -14.2780
  31   1.0000      -0.492858       -13.4113
  32   1.0000      -0.489567       -13.3218
  33   1.0000      -0.470230       -12.7956
  34   1.0000      -0.457463       -12.4482
  35   1.0000      -0.447705       -12.1827
  36   1.0000      -0.427979       -11.6459
  37   1.0000      -0.421692       -11.4748
  38   1.0000      -0.421067       -11.4578
  39   1.0000      -0.418226       -11.3805
  40   1.0000      -0.411339       -11.1931
  41   1.0000      -0.399752       -10.8778
  42   1.0000      -0.387024       -10.5314
  43   1.0000      -0.379783       -10.3344
  44   1.0000      -0.374492       -10.1904
  45   1.0000      -0.367073        -9.9886
  46   1.0000      -0.351876        -9.5750
  47   1.0000      -0.350827        -9.5465
  48   1.0000      -0.339301        -9.2328
  49   1.0000      -0.335092        -9.1183
  50   1.0000      -0.328358        -8.9351
  51   1.0000      -0.323378        -8.7996
  52   1.0000      -0.322494        -8.7755
  53   1.0000      -0.321104        -8.7377
  54   1.0000      -0.305900        -8.3240
  55   1.0000      -0.275859        -7.5065
  56   1.0000      -0.272006        -7.4016
  57   1.0000      -0.233063        -6.3420
  58   1.0000      -0.177584        -4.8323
  59   0.0000      -0.030414        -0.8276
  60   0.0000       0.011714         0.3188
  61   0.0000       0.047296         1.2870
  62   0.0000       0.058687         1.5969
  63   0.0000       0.063086         1.7166

                 SPIN DOWN ORBITALS
  NO   OCC          E(Eh)            E(eV)
   0   1.0000     -10.208012      -277.7741
   1   1.0000     -10.197856      -277.4978
   2   1.0000     -10.197258      -277.4815
   3   1.0000     -10.193539      -277.3803
   4   1.0000     -10.189519      -277.2709
   5   1.0000     -10.188104      -277.2324
   6   1.0000     -10.186484      -277.1883
   7   1.0000     -10.185701      -277.1670
   8   1.0000     -10.184376      -277.1310
   9   1.0000     -10.183924      -277.1187
  10   1.0000     -10.183048      -277.0948
  11   1.0000     -10.181719      -277.0587
  12   1.0000     -10.181535      -277.0536
  13   1.0000     -10.179893      -277.0090
  14   1.0000     -10.177799      -276.9520
  15   1.0000     -10.175935      -276.9013
  16   1.0000      -0.865371       -23.5479
  17   1.0000      -0.811271       -22.0758
  18   1.0000      -0.796154       -21.6644
  19   1.0000      -0.773177       -21.0392
  20   1.0000      -0.762614       -20.7518
  21   1.0000      -0.729739       -19.8572
  22   1.0000      -0.720293       -19.6002
  23   1.0000      -0.682247       -18.5649
  24   1.0000      -0.662250       -18.0207
  25   1.0000      -0.617844       -16.8124
  26   1.0000      -0.608655       -16.5623
  27   1.0000      -0.589475       -16.0404
  28   1.0000      -0.575335       -15.6557
  29   1.0000      -0.563218       -15.3259
  30   1.0000      -0.522761       -14.2250
  31   1.0000      -0.491317       -13.3694
  32   1.0000      -0.487657       -13.2698
  33   1.0000      -0.469323       -12.7709
  34   1.0000      -0.455334       -12.3903
  35   1.0000      -0.447124       -12.1669
  36   1.0000      -0.426543       -11.6068
  37   1.0000      -0.419901       -11.4261
  38   1.0000      -0.418616       -11.3911
  39   1.0000      -0.416175       -11.3247
  40   1.0000      -0.409350       -11.1390
  41   1.0000      -0.396463       -10.7883
  42   1.0000      -0.384151       -10.4533
  43   1.0000      -0.377293       -10.2667
  44   1.0000      -0.371851       -10.1186
  45   1.0000      -0.365829        -9.9547
  46   1.0000      -0.350809        -9.5460
  47   1.0000      -0.347625        -9.4593
  48   1.0000      -0.337806        -9.1922
  49   1.0000      -0.334413        -9.0998
  50   1.0000      -0.327751        -8.9186
  51   1.0000      -0.322559        -8.7773
  52   1.0000      -0.321706        -8.7541
  53   1.0000      -0.320187        -8.7127
  54   1.0000      -0.301259        -8.1977
  55   1.0000      -0.271924        -7.3994
  56   1.0000      -0.257973        -7.0198
  57   1.0000      -0.224920        -6.1204
  58   0.0000      -0.081181        -2.2091
  59   0.0000      -0.019873        -0.5408
  60   0.0000       0.028476         0.7749
  61   0.0000       0.047831         1.3015
  62   0.0000       0.059619         1.6223

MULLIKEN ATOMIC CHARGES AND SPIN POPULATIONS
--------------------------------------------
   0 C :    0.618154    0.029677
   1 C :   -0.061953    0.245872
   2 C :   -0.046151   -0.170955
   3 C :    0.024603    0.228045
   4 C :   -0.047119   -0.112685
   5 C :   -0.073313    0.262714
   6 C :    0.030475   -0.125980
   7 H :   -0.051898   -0.009562
   8 H :   -0.062827    0.004569
   9 C :    0.042198    0.748252
  10 H :    0.011795   -0.030030
  11 H :    0.007919   -0.029508
  12 C :    0.051911   -0.018356
  13 H :   -0.000685    0.002444
  14 H :    0.008283    0.006869
  15 C :   -0.029346    0.011833
  16 H :    0.011911   -0.000706
  17 H :    0.007115   -0.000240
  18 C :   -0.006350    0.001078
  19 H :    0.016481   -0.000032
  20 H :    0.016888    0.000228
  21 C :    0.044231   -0.020773
  22 H :    0.031841    0.011218
  23 H :    0.032006    0.011377
  24 C :   -0.036037    0.000965
  25 H :    0.015265    0.000215
  26 H :    0.014468    0.000212
  27 C :   -0.024331    0.000023
  28 H :    0.006029    0.000060
  29 H :    0.006322    0.000060
  30 C :    0.003159   -0.000090
  31 H :    0.016300    0.000027
  32 H :    0.016547    0.000025
  33 C :   -0.592085   -0.049111
  34 H :   -0.030622    0.001951
  35 H :    0.015711    0.000321
  36 H :    0.013106   -0.000006
Sum of atomic charges         :    0.0000000

LOEWDIN ATOMIC CHARGES AND SPIN POPULATIONS
-------------------------------------------
   0 C :   -0.001387    0.013906
   1 C :   -0.000568    0.182153
   2 C :   -0.054637   -0.072380
   3 C :    0.017731    0.177047
   4 C :   -0.063793   -0.059372
   5 C :    0.000626    0.194864
   6 C :   -0.032353   -0.066701
   7 H :    0.029356    0.000011
   8 H :    0.023738   -0.000531
   9 C :   -0.018712    0.624869
  10 H :    0.015955    0.003574
  11 H :    0.019235    0.002340
  12 C :   -0.032780    0.000350
  13 H :    0.028905    0.001593
  14 H :    0.027699    0.004313
  15 C :   -0.043696    0.009875
  16 H :    0.024584    0.000451
  17 H :    0.025123    0.000207
  18 C :   -0.068422    0.000967
  19 H :    0.025033    0.000022
  20 H :    0.025148    0.000161
  21 C :   -0.035704    0.002523
  22 H :    0.039928    0.008818
  23 H :    0.040004    0.008959
  24 C :   -0.043917    0.000174
  25 H :    0.023602    0.000076
  26 H :    0.023451    0.000075
  27 C :   -0.046999    0.000018
  28 H :    0.024223    0.000098
  29 H :    0.024330    0.000102
  30 C :   -0.067842   -0.000043
  31 H :    0.024839    0.000018
  32 H :    0.024926    0.000017
  33 C :   -0.055603   -0.038757
  34 H :    0.021760   -0.000071
  35 H :    0.028632    0.000280
  36 H :    0.027584   -0.000008

  Mayer bond orders larger than 0.100000
B(  0-C ,  4-C ) :   0.8974 B(  0-C , 33-C ) :   2.1466 B(  1-C ,  2-C ) :   1.2756
B(  1-C ,  6-C ) :   1.4277 B(  1-C , 12-C ) :   1.1089 B(  2-C ,  3-C ) :   1.2640
B(  2-C ,  9-C ) :   1.5110 B(  3-C ,  4-C ) :   1.4584 B(  3-C ,  7-H ) :   0.9255
B(  4-C ,  5-C ) :   1.3542 B(  5-C ,  6-C ) :   1.3833 B(  5-C , 21-C ) :   1.0934
B(  6-C ,  8-H ) :   0.9131 B(  9-C , 10-H ) :   0.9056 B(  9-C , 11-H ) :   0.9120
B( 12-C , 13-H ) :   0.9113 B( 12-C , 14-H ) :   0.9047 B( 12-C , 15-C ) :   1.0597
B( 15-C , 16-H ) :   0.9441 B( 15-C , 17-H ) :   0.9436 B( 15-C , 18-C ) :   1.1014
B( 18-C , 19-H ) :   0.9664 B( 18-C , 20-H ) :   0.9668 B( 18-C , 35-H ) :   0.9640
B( 21-C , 22-H ) :   0.8962 B( 21-C , 23-H ) :   0.8968 B( 21-C , 24-C ) :   1.1023
B( 24-C , 25-H ) :   0.9290 B( 24-C , 26-H ) :   0.9296 B( 24-C , 27-C ) :   1.0756
B( 27-C , 28-H ) :   0.9410 B( 27-C , 29-H ) :   0.9411 B( 27-C , 30-C ) :   1.1060
B( 30-C , 31-H ) :   0.9662 B( 30-C , 32-H ) :   0.9662 B( 30-C , 36-H ) :   0.9618
B( 33-C , 34-H ) :   1.1160

FINAL SINGLE POINT ENERGY      -621.857542086669

DIPOLE MOMENT
-------------
                                X             Y             Z
Electronic contribution:    -11.73004      14.80418      -1.69519
Nuclear contribution   :     11.94922     -15.07811       1.72699
                        -----------------------------------------
Total Dipole Moment    :      0.21918      -0.27393       0.03180
                        -----------------------------------------
Magnitude (a.u.)       :      0.35226
Magnitude (Debye)      :      0.89537

Rotational constants in cm-1:     0.018510     0.010262     0.006806
Rotational constants in MHz :   554.927010   307.651229   204.046872

CHEMICAL SHIELDING SUMMARY (ppm)  --  Orbital contribution
----------------------------------------------------------

  Nucleus  Element    Isotropic     Anisotropy
  -------  -------  ------------   ------------
      7       H           24.474          8.072
      8       H           24.789         12.649
     10       H           26.161          6.952
     11       H           26.386          4.873
     13       H           29.257          5.324
     14       H           28.710          4.218
     16       H           29.706          5.187
     17       H           30.069          5.124
     19       H           30.346          8.160
     20       H           30.376          7.938
     22       H           28.707          5.561
     23       H           28.719          5.570
     25       H           29.856          4.630
     26       H           29.867          4.891
     28       H           29.923          6.442
     29       H           29.925          6.507
     31       H           30.342          7.773
     32       H           30.340          7.821
     34       H           28.385         10.922
     35       H           30.155         10.174
     36       H           30.122         10.188

                             ****ORCA TERMINATED NORMALLY****
TOTAL RUN TIME: 0 days 0 hours 24 minutes 33 seconds 655 msec
