                         Program Version 5.0.4 -  RELEASE  -
|  1> ! B3LYP cc-pVDZ AUTOAUX
|  2> %pal nprocs 16 end
|  3> *XYZFile 0 2 opt.xyz
|  4> %EPRNMR
|  5>         GTENSOR   TRUE
|  6>         NUCLEI    = ALL H {SHIFT, AISO, ADIP, AORB}
|  7>         ORI       GIAO
|  8> END
|  9>
| 10>                          ****END OF INPUT****

CARTESIAN COORDINATES (ANGSTROEM)
---------------------------------
  C     -2.631597    0.129889    0.152946
  C      1.575864   -0.218018   -0.504992
  C      0.963822    1.083546   -0.471921
  C     -0.443340    1.138551   -0.248119
  C     -1.220279   -0.005180   -0.065902
  C     -0.611010   -1.294596   -0.103795
  C      0.773999   -1.347005   -0.323995
  H     -0.932113    2.114973   -0.219804
  H      1.262338   -2.323049   -0.360688
  C      1.682287    2.282286   -0.654363
  H      2.755459    2.297223   -0.838416
  H      1.162943    3.241730   -0.622224
  C      3.065834   -0.388546   -0.698656
  H      3.262023   -1.404533   -1.082470
  H      3.432977    0.306369   -1.474054
  C      3.887515   -0.182955    0.591465
  H      3.688811    0.825725    0.993912
  H      3.528649   -0.892624    1.358202
  C      5.390342   -0.369448    0.371431
  H      5.781137    0.351469   -0.367554
  H      5.618742   -1.381978   -0.004350
  C     -1.464202   -2.531527    0.084086
  H     -2.003034   -2.436934    1.045488
  H     -2.265137   -2.516675   -0.678829
  C     -0.750622   -3.885261    0.036886
  H     -0.229468   -4.002281   -0.931186
  H      0.033199   -3.924469    0.815700
  C     -1.711359   -5.064693    0.232430
  H     -2.238010   -4.948281    1.197733
  H     -2.495639   -5.026358   -0.546048
  C     -1.012747   -6.426102    0.189580
  H     -0.246895   -6.508811    0.980041
  H     -0.505961   -6.586065   -0.777902
  C     -3.826626    0.249482    0.342032
  H     -4.879280    0.361416    0.513224
  H      5.954180   -0.226136    1.307646
  H     -1.728336   -7.252292    0.331363

 Total Charge           Charge          ....    0
 Multiplicity           Mult            ....    2
 Number of Electrons    NEL             ....  117
 Basis Dimension        Dim             ....  329

ORBITAL ENERGIES
----------------
                 SPIN UP ORBITALS
  NO   OCC          E(Eh)            E(eV)
   0   1.0000     -10.206349      -277.7289
   1   1.0000     -10.201073      -277.5853
   2   1.0000     -10.197170      -277.4791
   3   1.0000     -10.195342      -277.4294
   4   1.0000     -10.192919      -277.3634
   5   1.0000     -10.189990      -277.2837
   6   1.0000     -10.188517      -277.2436
   7   1.0000     -10.186254      -277.1821
   8   1.0000     -10.185464      -277.1606
   9   1.0000     -10.184227      -277.1269
  10   1.0000     -10.182729      -277.0862
  11   1.0000     -10.182428      -277.0779
  12   1.0000     -10.181717      -277.0586
  13   1.0000     -10.181529      -277.0535
  14   1.0000     -10.177829      -276.9528
  15   1.0000     -10.175926      -276.9010
  16   1.0000      -0.869092       -23.6492
  17   1.0000      -0.814419       -22.1615
  18   1.0000      -0.797035       -21.6884
  19   1.0000      -0.776522       -21.1303
  20   1.0000      -0.764105       -20.7924
  21   1.0000      -0.731961       -19.9177
  22   1.0000      -0.723699       -19.6928
  23   1.0000      -0.684535       -18.6271
  24   1.0000      -0.669486       -18.2176
  25   1.0000      -0.624257       -16.9869
  26   1.0000      -0.611207       -16.6318
  27   1.0000      -0.591186       -16.0870
  28   1.0000      -0.576242       -15.6804
  29   1.0000      -0.564738       -15.3673
  30   1.0000      -0.524709       -14.2780
  31   1.0000      -0.492859       -13.4114
  32   1.0000      -0.489566       -13.3218
  33   1.0000      -0.470230       -12.7956
  34   1.0000      -0.457462       -12.4482
  35   1.0000      -0.447711       -12.1828
  36   1.0000      -0.427976       -11.6458
  37   1.0000      -0.421694       -11.4749
  38   1.0000      -0.421057       -11.4575
  39   1.0000      -0.418225       -11.3805
  40   1.0000      -0.411338       -11.1931
  41   1.0000      -0.399751       -10.8778
  42   1.0000      -0.387024       -10.5315
  43   1.0000      -0.379784       -10.3345
  44   1.0000      -0.374485       -10.1903
  45   1.0000      -0.367098        -9.9892
  46   1.0000      -0.351876        -9.5750
  47   1.0000      -0.350827        -9.5465
  48   1.0000      -0.339305        -9.2330
  49   1.0000      -0.335091        -9.1183
  50   1.0000      -0.328371        -8.9354
  51   1.0000      -0.323371        -8.7994
  52   1.0000      -0.322504        -8.7758
  53   1.0000      -0.321109        -8.7378
  54   1.0000      -0.305900        -8.3240
  55   1.0000      -0.275860        -7.5065
  56   1.0000      -0.272011        -7.4018
  57   1.0000      -0.233067        -6.3421
  58   1.0000      -0.177590        -4.8325
  59   0.0000      -0.030417        -0.8277
  60   0.0000       0.011715         0.3188
  61   0.0000       0.047296         1.2870
  62   0.0000       0.058679         1.5967
  63   0.0000       0.063092         1.7168

                 SPIN DOWN ORBITALS
  NO   OCC          E(Eh)            E(eV)
   0   1.0000     -10.207988      -277.7735
   1   1.0000     -10.197865      -277.4980
   2   1.0000     -10.197261      -277.4816
   3   1.0000     -10.193542      -277.3804
   4   1.0000     -10.189545      -277.2716
   5   1.0000     -10.188120      -277.2328
   6   1.0000     -10.186489      -277.1885
   7   1.0000     -10.185687      -277.1666
   8   1.0000     -10.184381      -277.1311
   9   1.0000     -10.183953      -277.1195
  10   1.0000     -10.183048      -277.0948
  11   1.0000     -10.181714      -277.0585
  12   1.0000     -10.181528      -277.0535
  13   1.0000     -10.179900      -277.0092
  14   1.0000     -10.177816      -276.9524
  15   1.0000     -10.175927      -276.9011
  16   1.0000      -0.865367       -23.5478
  17   1.0000      -0.811272       -22.0758
  18   1.0000      -0.796151       -21.6644
  19   1.0000      -0.773174       -21.0391
  20   1.0000      -0.762617       -20.7519
  21   1.0000      -0.729740       -19.8572
  22   1.0000      -0.720291       -19.6001
  23   1.0000      -0.682247       -18.5649
  24   1.0000      -0.662254       -18.0208
  25   1.0000      -0.617848       -16.8125
  26   1.0000      -0.608654       -16.5623
  27   1.0000      -0.589479       -16.0405
  28   1.0000      -0.575348       -15.6560
  29   1.0000      -0.563221       -15.3260
  30   1.0000      -0.522762       -14.2251
  31   1.0000      -0.491318       -13.3694
  32   1.0000      -0.487657       -13.2698
  33   1.0000      -0.469324       -12.7709
  34   1.0000      -0.455334       -12.3903
  35   1.0000      -0.447129       -12.1670
  36   1.0000      -0.426541       -11.6068
  37   1.0000      -0.419898       -11.4260
  38   1.0000      -0.418617       -11.3911
  39   1.0000      -0.416174       -11.3247
  40   1.0000      -0.409350       -11.1390
  41   1.0000      -0.396461       -10.7882
  42   1.0000      -0.384152       -10.4533
  43   1.0000      -0.377300       -10.2669
  44   1.0000      -0.371839       -10.1182
  45   1.0000      -0.365858        -9.9555
  46   1.0000      -0.350811        -9.5460
  47   1.0000      -0.347626        -9.4594
  48   1.0000      -0.337810        -9.1923
  49   1.0000      -0.334411        -9.0998
  50   1.0000      -0.327763        -8.9189
  51   1.0000      -0.322555        -8.7772
  52   1.0000      -0.321716        -8.7543
  53   1.0000      -0.320191        -8.7128
  54   1.0000      -0.301260        -8.1977
  55   1.0000      -0.271929        -7.3996
  56   1.0000      -0.257975        -7.0199
  57   1.0000      -0.224915        -6.1203
  58   0.0000      -0.081182        -2.2091
  59   0.0000      -0.019875        -0.5408
  60   0.0000       0.028472         0.7748
  61   0.0000       0.047831         1.3016
  62   0.0000       0.059611         1.6221

MULLIKEN ATOMIC CHARGES AND SPIN POPULATIONS
--------------------------------------------
   0 C :    0.618148    0.029205
   1 C :   -0.061925    0.245765
   2 C :   -0.046143   -0.170910
   3 C :    0.024475    0.227983
   4 C :   -0.047038   -0.112513
   5 C :   -0.073286    0.262437
   6 C :    0.030418   -0.125864
   7 H :   -0.051878   -0.009553
   8 H :   -0.062802    0.004564
   9 C :    0.042158    0.748396
  10 H :    0.011829   -0.030044
  11 H :    0.007928   -0.029520
  12 C :    0.051949   -0.018339
  13 H :   -0.000701    0.002443
  14 H :    0.008295    0.006867
  15 C :   -0.029424    0.011830
  16 H :    0.011918   -0.000704
  17 H :    0.007133   -0.000240
  18 C :   -0.006386    0.001077
  19 H :    0.016487   -0.000032
  20 H :    0.016906    0.000228
  21 C :    0.044274   -0.020719
  22 H :    0.031819    0.011175
  23 H :    0.032010    0.011396
  24 C :   -0.036016    0.000961
  25 H :    0.015315    0.000212
  26 H :    0.014399    0.000215
  27 C :   -0.024308    0.000024
  28 H :    0.006025    0.000060
  29 H :    0.006317    0.000060
  30 C :    0.003152   -0.000090
  31 H :    0.016306    0.000027
  32 H :    0.016529    0.000025
  33 C :   -0.592096   -0.048664
  34 H :   -0.030625    0.001927
  35 H :    0.015725    0.000321
  36 H :    0.013112   -0.000006
Sum of atomic charges         :    0.0000000

LOEWDIN ATOMIC CHARGES AND SPIN POPULATIONS
-------------------------------------------
   0 C :   -0.001412    0.013678
   1 C :   -0.000548    0.182098
   2 C :   -0.054644   -0.072368
   3 C :    0.017693    0.177015
   4 C :   -0.063741   -0.059326
   5 C :    0.000627    0.194691
   6 C :   -0.032363   -0.066650
   7 H :    0.029360    0.000015
   8 H :    0.023747   -0.000532
   9 C :   -0.018707    0.624988
  10 H :    0.015961    0.003571
  11 H :    0.019237    0.002336
  12 C :   -0.032779    0.000355
  13 H :    0.028900    0.001592
  14 H :    0.027703    0.004312
  15 C :   -0.043732    0.009874
  16 H :    0.024579    0.000452
  17 H :    0.025136    0.000207
  18 C :   -0.068434    0.000967
  19 H :    0.025035    0.000022
  20 H :    0.025156    0.000161
  21 C :   -0.035693    0.002537
  22 H :    0.039922    0.008785
  23 H :    0.039999    0.008976
  24 C :   -0.043912    0.000174
  25 H :    0.023594    0.000075
  26 H :    0.023445    0.000077
  27 C :   -0.046987    0.000018
  28 H :    0.024221    0.000098
  29 H :    0.024318    0.000102
  30 C :   -0.067827   -0.000043
  31 H :    0.024829    0.000018
  32 H :    0.024920    0.000017
  33 C :   -0.055593   -0.038487
  34 H :    0.021759   -0.000079
  35 H :    0.028639    0.000280
  36 H :    0.027592   -0.000008

  Mayer bond orders larger than 0.100000
B(  0-C ,  4-C ) :   0.8973 B(  0-C , 33-C ) :   2.1466 B(  1-C ,  2-C ) :   1.2756
B(  1-C ,  6-C ) :   1.4277 B(  1-C , 12-C ) :   1.1089 B(  2-C ,  3-C ) :   1.2640
B(  2-C ,  9-C ) :   1.5109 B(  3-C ,  4-C ) :   1.4584 B(  3-C ,  7-H ) :   0.9255
B(  4-C ,  5-C ) :   1.3542 B(  5-C ,  6-C ) :   1.3833 B(  5-C , 21-C ) :   1.0934
B(  6-C ,  8-H ) :   0.9131 B(  9-C , 10-H ) :   0.9056 B(  9-C , 11-H ) :   0.9121
B( 12-C , 13-H ) :   0.9113 B( 12-C , 14-H ) :   0.9047 B( 12-C , 15-C ) :   1.0597
B( 15-C , 16-H ) :   0.9441 B( 15-C , 17-H ) :   0.9436 B( 15-C , 18-C ) :   1.1014
B( 18-C , 19-H ) :   0.9664 B( 18-C , 20-H ) :   0.9668 B( 18-C , 35-H ) :   0.9640
B( 21-C , 22-H ) :   0.8962 B( 21-C , 23-H ) :   0.8967 B( 21-C , 24-C ) :   1.1023
B( 24-C , 25-H ) :   0.9290 B( 24-C , 26-H ) :   0.9297 B( 24-C , 27-C ) :   1.0756
B( 27-C , 28-H ) :   0.9410 B( 27-C , 29-H ) :   0.9411 B( 27-C , 30-C ) :   1.1059
B( 30-C , 31-H ) :   0.9662 B( 30-C , 32-H ) :   0.9662 B( 30-C , 36-H ) :   0.9618
B( 33-C , 34-H ) :   1.1160

FINAL SINGLE POINT ENERGY      -621.857541760659

DIPOLE MOMENT
-------------
                                X             Y             Z
Electronic contribution:    -11.73253      14.80491      -1.69664
Nuclear contribution   :     11.95169     -15.07875       1.72848
                        -----------------------------------------
Total Dipole Moment    :      0.21916      -0.27383       0.03185
                        -----------------------------------------
Magnitude (a.u.)       :      0.35218
Magnitude (Debye)      :      0.89517

Rotational constants in cm-1:     0.018509     0.010263     0.006806
Rotational constants in MHz :   554.888538   307.670825   204.032667

CHEMICAL SHIELDING SUMMARY (ppm)  --  Orbital contribution
----------------------------------------------------------

  Nucleus  Element    Isotropic     Anisotropy
  -------  -------  ------------   ------------
      7       H           24.474          8.073
      8       H           24.789         12.647
     10       H           26.162          6.953
     11       H           26.386          4.874
     13       H           29.258          5.323
     14       H           28.711          4.218
     16       H           29.705          5.188
     17       H           30.069          5.122
     19       H           30.344          8.159
     20       H           30.375          7.939
     22       H           28.707          5.578
     23       H           28.722          5.556
     25       H           29.855          4.639
     26       H           29.871          4.883
     28       H           29.924          6.444
     29       H           29.927          6.507
     31       H           30.343          7.774
     32       H           30.340          7.823
     34       H           28.385         10.921
     35       H           30.153         10.175
     36       H           30.122         10.188

                             ****ORCA TERMINATED NORMALLY****
TOTAL RUN TIME: 0 days 0 hours 25 minutes 31 seconds 122 msec
