                         Program Version 5.0.4 -  RELEASE  -
|  1> ! B3LYP cc-pVDZ AUTOAUX
|  2> %pal nprocs 16 end
|  3> *XYZFile 0 2 opt_cc-pVDZ.xyz
|  4> %EPRNMR
|  5>         GTENSOR   TRUE
|  6>         NUCLEI    = ALL H {SHIFT, AISO, ADIP, AORB}
|  7>         ORI       CenterOfElCharge
|  8> END
|  9>
| 10>                          ****END OF INPUT****

CARTESIAN COORDINATES (ANGSTROEM)
---------------------------------
  C     -2.631254    0.130040    0.153618
  C      1.576073   -0.218268   -0.504915
  C      0.963883    1.083255   -0.473502
  C     -0.443221    1.138381   -0.249565
  C     -1.220096   -0.005181   -0.066164
  C     -0.610813   -1.294615   -0.103079
  C      0.774257   -1.347118   -0.322980
  H     -0.932054    2.114791   -0.222291
  H      1.262593   -2.323151   -0.358854
  C      1.682181    2.281840   -0.657448
  H      2.755140    2.296584   -0.842674
  H      1.162652    3.241230   -0.627097
  C      3.066103   -0.388858   -0.697740
  H      3.262481   -1.405155   -1.080710
  H      3.433529    0.305528   -1.473508
  C      3.887275   -0.182432    0.592554
  H      3.688368    0.826444    0.994430
  H      3.528201   -0.891693    1.359533
  C      5.390182   -0.368914    0.373185
  H      5.781250    0.351972   -0.365653
  H      5.618721   -1.381441   -0.002445
  C     -1.463893   -2.531456    0.086049
  H     -2.000569   -2.437299    1.048740
  H     -2.266577   -2.516022   -0.675150
  C     -0.750675   -3.885280    0.036580
  H     -0.231388   -4.001584   -0.932616
  H      0.034651   -3.925419    0.813943
  C     -1.711369   -5.064580    0.233027
  H     -2.235633   -4.949112    1.199775
  H     -2.497582   -5.025078   -0.543585
  C     -1.013273   -6.426080    0.186891
  H     -0.245260   -6.509857    0.975232
  H     -0.509185   -6.585150   -0.782141
  C     -3.826218    0.249365    0.343367
  H     -4.878905    0.360833    0.514750
  H      5.953593   -0.225504    1.309596
  H     -1.728700   -7.252170    0.329745

 Total Charge           Charge          ....    0
 Multiplicity           Mult            ....    2
 Number of Electrons    NEL             ....  117
 Basis Dimension        Dim             ....  329

ORBITAL ENERGIES
----------------
                 SPIN UP ORBITALS
  NO   OCC          E(Eh)            E(eV)
   0   1.0000     -10.206367      -277.7294
   1   1.0000     -10.201079      -277.5855
   2   1.0000     -10.197168      -277.4790
   3   1.0000     -10.195333      -277.4291
   4   1.0000     -10.192900      -277.3629
   5   1.0000     -10.189980      -277.2835
   6   1.0000     -10.188516      -277.2436
   7   1.0000     -10.186248      -277.1819
   8   1.0000     -10.185478      -277.1610
   9   1.0000     -10.184203      -277.1263
  10   1.0000     -10.182723      -277.0860
  11   1.0000     -10.182417      -277.0776
  12   1.0000     -10.181724      -277.0588
  13   1.0000     -10.181537      -277.0537
  14   1.0000     -10.177814      -276.9524
  15   1.0000     -10.175931      -276.9012
  16   1.0000      -0.869099       -23.6494
  17   1.0000      -0.814422       -22.1615
  18   1.0000      -0.797039       -21.6885
  19   1.0000      -0.776527       -21.1304
  20   1.0000      -0.764105       -20.7924
  21   1.0000      -0.731960       -19.9176
  22   1.0000      -0.723698       -19.6928
  23   1.0000      -0.684533       -18.6271
  24   1.0000      -0.669484       -18.2176
  25   1.0000      -0.624250       -16.9867
  26   1.0000      -0.611210       -16.6319
  27   1.0000      -0.591183       -16.0869
  28   1.0000      -0.576231       -15.6800
  29   1.0000      -0.564735       -15.3672
  30   1.0000      -0.524706       -14.2780
  31   1.0000      -0.492858       -13.4113
  32   1.0000      -0.489567       -13.3218
  33   1.0000      -0.470231       -12.7956
  34   1.0000      -0.457464       -12.4482
  35   1.0000      -0.447707       -12.1827
  36   1.0000      -0.427980       -11.6459
  37   1.0000      -0.421692       -11.4748
  38   1.0000      -0.421067       -11.4578
  39   1.0000      -0.418227       -11.3805
  40   1.0000      -0.411339       -11.1931
  41   1.0000      -0.399752       -10.8778
  42   1.0000      -0.387024       -10.5315
  43   1.0000      -0.379783       -10.3344
  44   1.0000      -0.374492       -10.1905
  45   1.0000      -0.367073        -9.9886
  46   1.0000      -0.351876        -9.5750
  47   1.0000      -0.350827        -9.5465
  48   1.0000      -0.339302        -9.2329
  49   1.0000      -0.335093        -9.1183
  50   1.0000      -0.328359        -8.9351
  51   1.0000      -0.323379        -8.7996
  52   1.0000      -0.322495        -8.7755
  53   1.0000      -0.321105        -8.7377
  54   1.0000      -0.305901        -8.3240
  55   1.0000      -0.275859        -7.5065
  56   1.0000      -0.272006        -7.4017
  57   1.0000      -0.233064        -6.3420
  58   1.0000      -0.177585        -4.8323
  59   0.0000      -0.030414        -0.8276
  60   0.0000       0.011714         0.3187
  61   0.0000       0.047295         1.2870
  62   0.0000       0.058686         1.5969
  63   0.0000       0.063085         1.7166

                 SPIN DOWN ORBITALS
  NO   OCC          E(Eh)            E(eV)
   0   1.0000     -10.208009      -277.7740
   1   1.0000     -10.197857      -277.4978
   2   1.0000     -10.197260      -277.4815
   3   1.0000     -10.193537      -277.3802
   4   1.0000     -10.189524      -277.2711
   5   1.0000     -10.188111      -277.2326
   6   1.0000     -10.186484      -277.1883
   7   1.0000     -10.185703      -277.1671
   8   1.0000     -10.184377      -277.1310
   9   1.0000     -10.183929      -277.1188
  10   1.0000     -10.183045      -277.0948
  11   1.0000     -10.181721      -277.0587
  12   1.0000     -10.181537      -277.0537
  13   1.0000     -10.179894      -277.0090
  14   1.0000     -10.177800      -276.9520
  15   1.0000     -10.175933      -276.9012
  16   1.0000      -0.865372       -23.5480
  17   1.0000      -0.811272       -22.0758
  18   1.0000      -0.796155       -21.6645
  19   1.0000      -0.773178       -21.0393
  20   1.0000      -0.762615       -20.7518
  21   1.0000      -0.729740       -19.8572
  22   1.0000      -0.720294       -19.6002
  23   1.0000      -0.682247       -18.5649
  24   1.0000      -0.662250       -18.0207
  25   1.0000      -0.617845       -16.8124
  26   1.0000      -0.608656       -16.5624
  27   1.0000      -0.589476       -16.0404
  28   1.0000      -0.575336       -15.6557
  29   1.0000      -0.563219       -15.3260
  30   1.0000      -0.522760       -14.2250
  31   1.0000      -0.491318       -13.3694
  32   1.0000      -0.487658       -13.2698
  33   1.0000      -0.469324       -12.7710
  34   1.0000      -0.455334       -12.3903
  35   1.0000      -0.447125       -12.1669
  36   1.0000      -0.426543       -11.6068
  37   1.0000      -0.419902       -11.4261
  38   1.0000      -0.418617       -11.3911
  39   1.0000      -0.416176       -11.3247
  40   1.0000      -0.409350       -11.1390
  41   1.0000      -0.396464       -10.7883
  42   1.0000      -0.384152       -10.4533
  43   1.0000      -0.377294       -10.2667
  44   1.0000      -0.371852       -10.1186
  45   1.0000      -0.365829        -9.9547
  46   1.0000      -0.350810        -9.5460
  47   1.0000      -0.347625        -9.4594
  48   1.0000      -0.337807        -9.1922
  49   1.0000      -0.334414        -9.0999
  50   1.0000      -0.327752        -8.9186
  51   1.0000      -0.322560        -8.7773
  52   1.0000      -0.321707        -8.7541
  53   1.0000      -0.320187        -8.7127
  54   1.0000      -0.301260        -8.1977
  55   1.0000      -0.271925        -7.3995
  56   1.0000      -0.257973        -7.0198
  57   1.0000      -0.224921        -6.1204
  58   0.0000      -0.081182        -2.2091
  59   0.0000      -0.019874        -0.5408
  60   0.0000       0.028476         0.7749
  61   0.0000       0.047830         1.3015
  62   0.0000       0.059619         1.6223

MULLIKEN ATOMIC CHARGES AND SPIN POPULATIONS
--------------------------------------------
   0 C :    0.618127    0.029703
   1 C :   -0.061943    0.245881
   2 C :   -0.046154   -0.170958
   3 C :    0.024588    0.228052
   4 C :   -0.047127   -0.112698
   5 C :   -0.073319    0.262728
   6 C :    0.030473   -0.125988
   7 H :   -0.051895   -0.009562
   8 H :   -0.062826    0.004570
   9 C :    0.042200    0.748246
  10 H :    0.011795   -0.030029
  11 H :    0.007919   -0.029507
  12 C :    0.051911   -0.018357
  13 H :   -0.000685    0.002444
  14 H :    0.008284    0.006869
  15 C :   -0.029357    0.011833
  16 H :    0.011913   -0.000706
  17 H :    0.007117   -0.000240
  18 C :   -0.006349    0.001078
  19 H :    0.016481   -0.000032
  20 H :    0.016889    0.000228
  21 C :    0.044228   -0.020776
  22 H :    0.031842    0.011219
  23 H :    0.032007    0.011378
  24 C :   -0.036042    0.000965
  25 H :    0.015266    0.000215
  26 H :    0.014469    0.000212
  27 C :   -0.024333    0.000023
  28 H :    0.006030    0.000060
  29 H :    0.006323    0.000060
  30 C :    0.003165   -0.000090
  31 H :    0.016299    0.000027
  32 H :    0.016546    0.000025
  33 C :   -0.592039   -0.049139
  34 H :   -0.030623    0.001954
  35 H :    0.015712    0.000321
  36 H :    0.013105   -0.000006
Sum of atomic charges         :    0.0000000

LOEWDIN ATOMIC CHARGES AND SPIN POPULATIONS
-------------------------------------------
   0 C :   -0.001410    0.013926
   1 C :   -0.000561    0.182159
   2 C :   -0.054638   -0.072381
   3 C :    0.017720    0.177052
   4 C :   -0.063787   -0.059377
   5 C :    0.000622    0.194873
   6 C :   -0.032353   -0.066706
   7 H :    0.029357    0.000011
   8 H :    0.023738   -0.000531
   9 C :   -0.018711    0.624864
  10 H :    0.015956    0.003574
  11 H :    0.019235    0.002340
  12 C :   -0.032780    0.000350
  13 H :    0.028905    0.001593
  14 H :    0.027699    0.004313
  15 C :   -0.043703    0.009875
  16 H :    0.024585    0.000451
  17 H :    0.025125    0.000207
  18 C :   -0.068421    0.000967
  19 H :    0.025033    0.000022
  20 H :    0.025148    0.000161
  21 C :   -0.035705    0.002523
  22 H :    0.039929    0.008819
  23 H :    0.040005    0.008960
  24 C :   -0.043920    0.000175
  25 H :    0.023603    0.000076
  26 H :    0.023452    0.000075
  27 C :   -0.047000    0.000018
  28 H :    0.024224    0.000098
  29 H :    0.024330    0.000102
  30 C :   -0.067839   -0.000043
  31 H :    0.024838    0.000018
  32 H :    0.024926    0.000017
  33 C :   -0.055580   -0.038780
  34 H :    0.021761   -0.000070
  35 H :    0.028632    0.000280
  36 H :    0.027584   -0.000008

  Mayer bond orders larger than 0.100000
B(  0-C ,  4-C ) :   0.8974 B(  0-C , 33-C ) :   2.1467 B(  1-C ,  2-C ) :   1.2756
B(  1-C ,  6-C ) :   1.4277 B(  1-C , 12-C ) :   1.1089 B(  2-C ,  3-C ) :   1.2640
B(  2-C ,  9-C ) :   1.5110 B(  3-C ,  4-C ) :   1.4584 B(  3-C ,  7-H ) :   0.9255
B(  4-C ,  5-C ) :   1.3542 B(  5-C ,  6-C ) :   1.3833 B(  5-C , 21-C ) :   1.0934
B(  6-C ,  8-H ) :   0.9131 B(  9-C , 10-H ) :   0.9056 B(  9-C , 11-H ) :   0.9120
B( 12-C , 13-H ) :   0.9113 B( 12-C , 14-H ) :   0.9047 B( 12-C , 15-C ) :   1.0597
B( 15-C , 16-H ) :   0.9441 B( 15-C , 17-H ) :   0.9436 B( 15-C , 18-C ) :   1.1014
B( 18-C , 19-H ) :   0.9664 B( 18-C , 20-H ) :   0.9668 B( 18-C , 35-H ) :   0.9640
B( 21-C , 22-H ) :   0.8962 B( 21-C , 23-H ) :   0.8968 B( 21-C , 24-C ) :   1.1023
B( 24-C , 25-H ) :   0.9290 B( 24-C , 26-H ) :   0.9296 B( 24-C , 27-C ) :   1.0756
B( 27-C , 28-H ) :   0.9410 B( 27-C , 29-H ) :   0.9411 B( 27-C , 30-C ) :   1.1060
B( 30-C , 31-H ) :   0.9662 B( 30-C , 32-H ) :   0.9662 B( 30-C , 36-H ) :   0.9618
B( 33-C , 34-H ) :   1.1160

FINAL SINGLE POINT ENERGY      -621.857542085795

DIPOLE MOMENT
-------------
                                X             Y             Z
Electronic contribution:    -11.73010      14.80417      -1.69519
Nuclear contribution   :     11.94922     -15.07811       1.72699
                        -----------------------------------------
Total Dipole Moment    :      0.21912      -0.27394       0.03180
                        -----------------------------------------
Magnitude (a.u.)       :      0.35223
Magnitude (Debye)      :      0.89531

Rotational constants in cm-1:     0.018510     0.010262     0.006806
Rotational constants in MHz :   554.927010   307.651229   204.046872

CHEMICAL SHIELDING SUMMARY (ppm)  --  Orbital contribution
----------------------------------------------------------

  Nucleus  Element    Isotropic     Anisotropy
  -------  -------  ------------   ------------
      7       H            6.785         40.424
      8       H           82.361         30.334
     10       H            3.641         15.161
     11       H          -15.272          6.154
     13       H           64.760         15.891
     14       H           24.962         37.571
     16       H           42.836         23.198
     17       H           82.709          9.270
     19       H           -9.220         23.786
     20       H           25.703         12.564
     22       H           56.760         40.464
     23       H           49.497         41.776
     25       H           78.032         14.563
     26       H           85.113          9.780
     28       H           27.879         21.215
     29       H           21.732         21.471
     31       H           35.195         10.977
     32       H           29.698         13.543
     34       H          -58.276        -18.603
     35       H          -22.033         27.481
     36       H          -51.064         13.223

                             ****ORCA TERMINATED NORMALLY****
TOTAL RUN TIME: 0 days 0 hours 24 minutes 45 seconds 230 msec
