                         Program Version 5.0.4 -  RELEASE  -
|  1> ! B3LYP cc-pVDZ AUTOAUX
|  2> %pal nprocs 16 end
|  3> *XYZFile 0 2 opt.xyz
|  4> %EPRNMR
|  5>         GTENSOR   TRUE
|  6>         NUCLEI    = ALL H {SHIFT, AISO, ADIP, AORB}
|  7> END
|  8>
|  9>                          ****END OF INPUT****

CARTESIAN COORDINATES (ANGSTROEM)
---------------------------------
  C     -2.631597    0.129889    0.152946
  C      1.575864   -0.218018   -0.504992
  C      0.963822    1.083546   -0.471921
  C     -0.443340    1.138551   -0.248119
  C     -1.220279   -0.005180   -0.065902
  C     -0.611010   -1.294596   -0.103795
  C      0.773999   -1.347005   -0.323995
  H     -0.932113    2.114973   -0.219804
  H      1.262338   -2.323049   -0.360688
  C      1.682287    2.282286   -0.654363
  H      2.755459    2.297223   -0.838416
  H      1.162943    3.241730   -0.622224
  C      3.065834   -0.388546   -0.698656
  H      3.262023   -1.404533   -1.082470
  H      3.432977    0.306369   -1.474054
  C      3.887515   -0.182955    0.591465
  H      3.688811    0.825725    0.993912
  H      3.528649   -0.892624    1.358202
  C      5.390342   -0.369448    0.371431
  H      5.781137    0.351469   -0.367554
  H      5.618742   -1.381978   -0.004350
  C     -1.464202   -2.531527    0.084086
  H     -2.003034   -2.436934    1.045488
  H     -2.265137   -2.516675   -0.678829
  C     -0.750622   -3.885261    0.036886
  H     -0.229468   -4.002281   -0.931186
  H      0.033199   -3.924469    0.815700
  C     -1.711359   -5.064693    0.232430
  H     -2.238010   -4.948281    1.197733
  H     -2.495639   -5.026358   -0.546048
  C     -1.012747   -6.426102    0.189580
  H     -0.246895   -6.508811    0.980041
  H     -0.505961   -6.586065   -0.777902
  C     -3.826626    0.249482    0.342032
  H     -4.879280    0.361416    0.513224
  H      5.954180   -0.226136    1.307646
  H     -1.728336   -7.252292    0.331363

 Total Charge           Charge          ....    0
 Multiplicity           Mult            ....    2
 Number of Electrons    NEL             ....  117
 Basis Dimension        Dim             ....  329

ORBITAL ENERGIES
----------------
                 SPIN UP ORBITALS
  NO   OCC          E(Eh)            E(eV)
   0   1.0000     -10.206402      -277.7303
   1   1.0000     -10.201086      -277.5857
   2   1.0000     -10.197180      -277.4794
   3   1.0000     -10.195327      -277.4290
   4   1.0000     -10.192883      -277.3625
   5   1.0000     -10.189980      -277.2834
   6   1.0000     -10.188497      -277.2431
   7   1.0000     -10.186247      -277.1819
   8   1.0000     -10.185460      -277.1605
   9   1.0000     -10.184187      -277.1258
  10   1.0000     -10.182730      -277.0862
  11   1.0000     -10.182406      -277.0773
  12   1.0000     -10.181702      -277.0582
  13   1.0000     -10.181518      -277.0532
  14   1.0000     -10.177821      -276.9526
  15   1.0000     -10.175943      -276.9015
  16   1.0000      -0.869094       -23.6493
  17   1.0000      -0.814418       -22.1614
  18   1.0000      -0.797031       -21.6883
  19   1.0000      -0.776515       -21.1300
  20   1.0000      -0.764102       -20.7923
  21   1.0000      -0.731955       -19.9175
  22   1.0000      -0.723694       -19.6927
  23   1.0000      -0.684531       -18.6270
  24   1.0000      -0.669484       -18.2176
  25   1.0000      -0.624255       -16.9869
  26   1.0000      -0.611203       -16.6317
  27   1.0000      -0.591184       -16.0869
  28   1.0000      -0.576239       -15.6803
  29   1.0000      -0.564738       -15.3673
  30   1.0000      -0.524705       -14.2780
  31   1.0000      -0.492856       -13.4113
  32   1.0000      -0.489565       -13.3217
  33   1.0000      -0.470228       -12.7956
  34   1.0000      -0.457459       -12.4481
  35   1.0000      -0.447702       -12.1826
  36   1.0000      -0.427974       -11.6458
  37   1.0000      -0.421697       -11.4749
  38   1.0000      -0.421056       -11.4575
  39   1.0000      -0.418223       -11.3804
  40   1.0000      -0.411333       -11.1929
  41   1.0000      -0.399748       -10.8777
  42   1.0000      -0.387018       -10.5313
  43   1.0000      -0.379782       -10.3344
  44   1.0000      -0.374484       -10.1902
  45   1.0000      -0.367096        -9.9892
  46   1.0000      -0.351873        -9.5749
  47   1.0000      -0.350824        -9.5464
  48   1.0000      -0.339299        -9.2328
  49   1.0000      -0.335087        -9.1182
  50   1.0000      -0.328365        -8.9353
  51   1.0000      -0.323369        -8.7993
  52   1.0000      -0.322502        -8.7757
  53   1.0000      -0.321107        -8.7378
  54   1.0000      -0.305895        -8.3238
  55   1.0000      -0.275859        -7.5065
  56   1.0000      -0.272004        -7.4016
  57   1.0000      -0.233062        -6.3419
  58   1.0000      -0.177585        -4.8323
  59   0.0000      -0.030417        -0.8277
  60   0.0000       0.011715         0.3188
  61   0.0000       0.047299         1.2871
  62   0.0000       0.058682         1.5968
  63   0.0000       0.063092         1.7168

                 SPIN DOWN ORBITALS
  NO   OCC          E(Eh)            E(eV)
   0   1.0000     -10.208042      -277.7749
   1   1.0000     -10.197851      -277.4976
   2   1.0000     -10.197270      -277.4818
   3   1.0000     -10.193550      -277.3806
   4   1.0000     -10.189509      -277.2706
   5   1.0000     -10.188096      -277.2322
   6   1.0000     -10.186483      -277.1883
   7   1.0000     -10.185684      -277.1666
   8   1.0000     -10.184382      -277.1311
   9   1.0000     -10.183913      -277.1184
  10   1.0000     -10.183030      -277.0943
  11   1.0000     -10.181700      -277.0581
  12   1.0000     -10.181518      -277.0532
  13   1.0000     -10.179891      -277.0089
  14   1.0000     -10.177807      -276.9522
  15   1.0000     -10.175945      -276.9015
  16   1.0000      -0.865369       -23.5479
  17   1.0000      -0.811269       -22.0758
  18   1.0000      -0.796147       -21.6642
  19   1.0000      -0.773166       -21.0389
  20   1.0000      -0.762613       -20.7517
  21   1.0000      -0.729734       -19.8571
  22   1.0000      -0.720289       -19.6001
  23   1.0000      -0.682244       -18.5648
  24   1.0000      -0.662253       -18.0208
  25   1.0000      -0.617848       -16.8125
  26   1.0000      -0.608650       -16.5622
  27   1.0000      -0.589476       -16.0405
  28   1.0000      -0.575344       -15.6559
  29   1.0000      -0.563222       -15.3260
  30   1.0000      -0.522759       -14.2250
  31   1.0000      -0.491316       -13.3694
  32   1.0000      -0.487656       -13.2698
  33   1.0000      -0.469321       -12.7709
  34   1.0000      -0.455330       -12.3902
  35   1.0000      -0.447120       -12.1668
  36   1.0000      -0.426538       -11.6067
  37   1.0000      -0.419897       -11.4260
  38   1.0000      -0.418618       -11.3912
  39   1.0000      -0.416171       -11.3246
  40   1.0000      -0.409345       -11.1388
  41   1.0000      -0.396457       -10.7882
  42   1.0000      -0.384147       -10.4532
  43   1.0000      -0.377297       -10.2668
  44   1.0000      -0.371838       -10.1182
  45   1.0000      -0.365856        -9.9554
  46   1.0000      -0.350808        -9.5460
  47   1.0000      -0.347623        -9.4593
  48   1.0000      -0.337805        -9.1921
  49   1.0000      -0.334408        -9.0997
  50   1.0000      -0.327756        -8.9187
  51   1.0000      -0.322553        -8.7771
  52   1.0000      -0.321714        -8.7543
  53   1.0000      -0.320188        -8.7128
  54   1.0000      -0.301255        -8.1976
  55   1.0000      -0.271923        -7.3994
  56   1.0000      -0.257972        -7.0198
  57   1.0000      -0.224917        -6.1203
  58   0.0000      -0.081181        -2.2090
  59   0.0000      -0.019874        -0.5408
  60   0.0000       0.028474         0.7748
  61   0.0000       0.047834         1.3016
  62   0.0000       0.059615         1.6222

MULLIKEN ATOMIC CHARGES AND SPIN POPULATIONS
--------------------------------------------
   0 C :    0.618166    0.029341
   1 C :   -0.061942    0.245797
   2 C :   -0.046129   -0.170930
   3 C :    0.024543    0.228000
   4 C :   -0.047136   -0.112571
   5 C :   -0.073292    0.262507
   6 C :    0.030419   -0.125897
   7 H :   -0.051886   -0.009556
   8 H :   -0.062802    0.004565
   9 C :    0.042160    0.748367
  10 H :    0.011826   -0.030041
  11 H :    0.007924   -0.029517
  12 C :    0.051951   -0.018343
  13 H :   -0.000706    0.002444
  14 H :    0.008293    0.006868
  15 C :   -0.029378    0.011831
  16 H :    0.011909   -0.000704
  17 H :    0.007122   -0.000240
  18 C :   -0.006387    0.001077
  19 H :    0.016483   -0.000032
  20 H :    0.016902    0.000228
  21 C :    0.044281   -0.020736
  22 H :    0.031816    0.011177
  23 H :    0.032009    0.011398
  24 C :   -0.035995    0.000962
  25 H :    0.015311    0.000212
  26 H :    0.014394    0.000215
  27 C :   -0.024298    0.000023
  28 H :    0.006022    0.000060
  29 H :    0.006314    0.000060
  30 C :    0.003132   -0.000090
  31 H :    0.016311    0.000027
  32 H :    0.016534    0.000025
  33 C :   -0.592076   -0.048777
  34 H :   -0.030631    0.001932
  35 H :    0.015722    0.000321
  36 H :    0.013115   -0.000006
Sum of atomic charges         :   -0.0000000

LOEWDIN ATOMIC CHARGES AND SPIN POPULATIONS
-------------------------------------------
   0 C :   -0.001402    0.013731
   1 C :   -0.000559    0.182111
   2 C :   -0.054632   -0.072372
   3 C :    0.017736    0.177022
   4 C :   -0.063799   -0.059337
   5 C :    0.000617    0.194727
   6 C :   -0.032361   -0.066661
   7 H :    0.029357    0.000014
   8 H :    0.023747   -0.000532
   9 C :   -0.018705    0.624965
  10 H :    0.015960    0.003572
  11 H :    0.019235    0.002337
  12 C :   -0.032779    0.000353
  13 H :    0.028897    0.001592
  14 H :    0.027702    0.004313
  15 C :   -0.043704    0.009874
  16 H :    0.024575    0.000452
  17 H :    0.025130    0.000207
  18 C :   -0.068435    0.000967
  19 H :    0.025033    0.000022
  20 H :    0.025154    0.000161
  21 C :   -0.035690    0.002533
  22 H :    0.039920    0.008787
  23 H :    0.039998    0.008977
  24 C :   -0.043899    0.000174
  25 H :    0.023591    0.000075
  26 H :    0.023443    0.000077
  27 C :   -0.046981    0.000018
  28 H :    0.024219    0.000098
  29 H :    0.024316    0.000102
  30 C :   -0.067839   -0.000043
  31 H :    0.024831    0.000018
  32 H :    0.024922    0.000017
  33 C :   -0.055583   -0.038546
  34 H :    0.021755   -0.000076
  35 H :    0.028637    0.000280
  36 H :    0.027593   -0.000008

  Mayer bond orders larger than 0.100000
B(  0-C ,  4-C ) :   0.8973 B(  0-C , 33-C ) :   2.1467 B(  1-C ,  2-C ) :   1.2756
B(  1-C ,  6-C ) :   1.4277 B(  1-C , 12-C ) :   1.1089 B(  2-C ,  3-C ) :   1.2640
B(  2-C ,  9-C ) :   1.5109 B(  3-C ,  4-C ) :   1.4584 B(  3-C ,  7-H ) :   0.9255
B(  4-C ,  5-C ) :   1.3542 B(  5-C ,  6-C ) :   1.3833 B(  5-C , 21-C ) :   1.0934
B(  6-C ,  8-H ) :   0.9131 B(  9-C , 10-H ) :   0.9056 B(  9-C , 11-H ) :   0.9121
B( 12-C , 13-H ) :   0.9113 B( 12-C , 14-H ) :   0.9047 B( 12-C , 15-C ) :   1.0597
B( 15-C , 16-H ) :   0.9441 B( 15-C , 17-H ) :   0.9436 B( 15-C , 18-C ) :   1.1014
B( 18-C , 19-H ) :   0.9664 B( 18-C , 20-H ) :   0.9668 B( 18-C , 35-H ) :   0.9640
B( 21-C , 22-H ) :   0.8962 B( 21-C , 23-H ) :   0.8967 B( 21-C , 24-C ) :   1.1023
B( 24-C , 25-H ) :   0.9290 B( 24-C , 26-H ) :   0.9297 B( 24-C , 27-C ) :   1.0756
B( 27-C , 28-H ) :   0.9410 B( 27-C , 29-H ) :   0.9411 B( 27-C , 30-C ) :   1.1059
B( 30-C , 31-H ) :   0.9662 B( 30-C , 32-H ) :   0.9662 B( 30-C , 36-H ) :   0.9618
B( 33-C , 34-H ) :   1.1160

FINAL SINGLE POINT ENERGY      -621.857540556155

DIPOLE MOMENT
-------------
                                X             Y             Z
Electronic contribution:    -11.73247      14.80503      -1.69663
Nuclear contribution   :     11.95169     -15.07875       1.72848
                        -----------------------------------------
Total Dipole Moment    :      0.21922      -0.27371       0.03186
                        -----------------------------------------
Magnitude (a.u.)       :      0.35212
Magnitude (Debye)      :      0.89502

Rotational constants in cm-1:     0.018509     0.010263     0.006806
Rotational constants in MHz :   554.888538   307.670825   204.032667

CHEMICAL SHIELDING SUMMARY (ppm)  --  Orbital contribution
----------------------------------------------------------

  Nucleus  Element    Isotropic     Anisotropy
  -------  -------  ------------   ------------
      7       H           24.474          8.072
      8       H           24.788         12.650
     10       H           26.161          6.951
     11       H           26.386          4.872
     13       H           29.258          5.323
     14       H           28.711          4.217
     16       H           29.705          5.190
     17       H           30.068          5.124
     19       H           30.345          8.158
     20       H           30.375          7.939
     22       H           28.706          5.578
     23       H           28.722          5.557
     25       H           29.855          4.640
     26       H           29.871          4.884
     28       H           29.924          6.444
     29       H           29.927          6.507
     31       H           30.343          7.772
     32       H           30.340          7.821
     34       H           28.385         10.922
     35       H           30.154         10.173
     36       H           30.121         10.187

                             ****ORCA TERMINATED NORMALLY****
TOTAL RUN TIME: 0 days 0 hours 25 minutes 5 seconds 36 msec
