                         Program Version 5.0.4 -  RELEASE  -
|  1> ! B3LYP EPR-II AUTOAUX
|  2> %pal nprocs 16 end
|  3> *XYZFile 0 2 opt_EPRII.xyz
|  4> %EPRNMR
|  5>         GTENSOR   TRUE
|  6>         NUCLEI    = ALL H {SHIFT, AISO, ADIP, AORB}
|  7>         ORI       GIAO
|  8> END
|  9>
| 10>                          ****END OF INPUT****

CARTESIAN COORDINATES (ANGSTROEM)
---------------------------------
  C     -2.631135    0.136092    0.158159
  C      1.583587   -0.229531   -0.498372
  C      0.972297    1.076577   -0.473269
  C     -0.437261    1.141039   -0.247916
  C     -1.217519   -0.004302   -0.061469
  C     -0.612770   -1.298720   -0.094607
  C      0.776447   -1.359051   -0.313969
  H     -0.919968    2.114043   -0.224749
  H      1.255317   -2.333399   -0.347294
  C      1.697853    2.276431   -0.666396
  H      2.764407    2.285724   -0.852533
  H      1.186985    3.233503   -0.643844
  C      3.076798   -0.402684   -0.692801
  H      3.274958   -1.422277   -1.045016
  H      3.439862    0.272421   -1.477924
  C      3.899103   -0.160579    0.597832
  H      3.687597    0.844664    0.979705
  H      3.558833   -0.862551    1.368882
  C      5.411564   -0.325853    0.372393
  H      5.780492    0.389290   -0.371628
  H      5.649364   -1.332684    0.010611
  C     -1.475199   -2.534705    0.096262
  H     -1.995412   -2.445171    1.060021
  H     -2.273793   -2.514645   -0.658143
  C     -0.761575   -3.894277    0.034737
  H     -0.255166   -4.007361   -0.933226
  H      0.019091   -3.943050    0.805682
  C     -1.732454   -5.072973    0.230701
  H     -2.242415   -4.963898    1.197030
  H     -2.514907   -5.026961   -0.538306
  C     -1.035667   -6.443315    0.170759
  H     -0.269788   -6.530091    0.949819
  H     -0.543315   -6.592334   -0.796918
  C     -3.831534    0.245077    0.347930
  H     -4.879254    0.347224    0.514955
  H      5.969680   -0.162328    1.300027
  H     -1.750638   -7.260504    0.311773

 Total Charge           Charge          ....    0
 Multiplicity           Mult            ....    2
 Number of Electrons    NEL             ....  117
 Basis Dimension        Dim             ....  419

ORBITAL ENERGIES
----------------
                 SPIN UP ORBITALS
  NO   OCC          E(Eh)            E(eV)
   0   1.0000     -10.217742      -278.0389
   1   1.0000     -10.211394      -277.8662
   2   1.0000     -10.207356      -277.7563
   3   1.0000     -10.206795      -277.7410
   4   1.0000     -10.203683      -277.6563
   5   1.0000     -10.200747      -277.5764
   6   1.0000     -10.193345      -277.3750
   7   1.0000     -10.192305      -277.3467
   8   1.0000     -10.190168      -277.2886
   9   1.0000     -10.187131      -277.2059
  10   1.0000     -10.185714      -277.1674
  11   1.0000     -10.184215      -277.1266
  12   1.0000     -10.181339      -277.0483
  13   1.0000     -10.180959      -277.0380
  14   1.0000     -10.173824      -276.8438
  15   1.0000     -10.171383      -276.7774
  16   1.0000      -0.866977       -23.5916
  17   1.0000      -0.812278       -22.1032
  18   1.0000      -0.794850       -21.6290
  19   1.0000      -0.774634       -21.0789
  20   1.0000      -0.763028       -20.7630
  21   1.0000      -0.731335       -19.9006
  22   1.0000      -0.723012       -19.6742
  23   1.0000      -0.684280       -18.6202
  24   1.0000      -0.669167       -18.2089
  25   1.0000      -0.624839       -17.0027
  26   1.0000      -0.611596       -16.6424
  27   1.0000      -0.592244       -16.1158
  28   1.0000      -0.577527       -15.7153
  29   1.0000      -0.565743       -15.3947
  30   1.0000      -0.527204       -14.3459
  31   1.0000      -0.494077       -13.4445
  32   1.0000      -0.489370       -13.3164
  33   1.0000      -0.470928       -12.8146
  34   1.0000      -0.457674       -12.4539
  35   1.0000      -0.448413       -12.2019
  36   1.0000      -0.428913       -11.6713
  37   1.0000      -0.422403       -11.4942
  38   1.0000      -0.420730       -11.4486
  39   1.0000      -0.417108       -11.3501
  40   1.0000      -0.411286       -11.1917
  41   1.0000      -0.401090       -10.9142
  42   1.0000      -0.386530       -10.5180
  43   1.0000      -0.381870       -10.3912
  44   1.0000      -0.374748       -10.1974
  45   1.0000      -0.365985        -9.9590
  46   1.0000      -0.352551        -9.5934
  47   1.0000      -0.352083        -9.5807
  48   1.0000      -0.339889        -9.2488
  49   1.0000      -0.334036        -9.0896
  50   1.0000      -0.329966        -8.9788
  51   1.0000      -0.324923        -8.8416
  52   1.0000      -0.321270        -8.7422
  53   1.0000      -0.320734        -8.7276
  54   1.0000      -0.305996        -8.3266
  55   1.0000      -0.275737        -7.5032
  56   1.0000      -0.273186        -7.4338
  57   1.0000      -0.233792        -6.3618
  58   1.0000      -0.178684        -4.8623
  59   0.0000      -0.033796        -0.9196
  60   0.0000       0.006111         0.1663
  61   0.0000       0.017087         0.4650
  62   0.0000       0.023361         0.6357
  63   0.0000       0.025444         0.6924

                 SPIN DOWN ORBITALS
  NO   OCC          E(Eh)            E(eV)
   0   1.0000     -10.219375      -278.0833
   1   1.0000     -10.209363      -277.8109
   2   1.0000     -10.207614      -277.7633
   3   1.0000     -10.203694      -277.6566
   4   1.0000     -10.203251      -277.6446
   5   1.0000     -10.197391      -277.4851
   6   1.0000     -10.193994      -277.3927
   7   1.0000     -10.191811      -277.3333
   8   1.0000     -10.187362      -277.2122
   9   1.0000     -10.185927      -277.1732
  10   1.0000     -10.183943      -277.1192
  11   1.0000     -10.182342      -277.0756
  12   1.0000     -10.181337      -277.0483
  13   1.0000     -10.180960      -277.0380
  14   1.0000     -10.173810      -276.8434
  15   1.0000     -10.171385      -276.7775
  16   1.0000      -0.863294       -23.4914
  17   1.0000      -0.809121       -22.0173
  18   1.0000      -0.793917       -21.6036
  19   1.0000      -0.771486       -20.9932
  20   1.0000      -0.761445       -20.7200
  21   1.0000      -0.729413       -19.8483
  22   1.0000      -0.719277       -19.5725
  23   1.0000      -0.682114       -18.5613
  24   1.0000      -0.661805       -18.0086
  25   1.0000      -0.618658       -16.8345
  26   1.0000      -0.609088       -16.5741
  27   1.0000      -0.590572       -16.0703
  28   1.0000      -0.576637       -15.6911
  29   1.0000      -0.564245       -15.3539
  30   1.0000      -0.525392       -14.2966
  31   1.0000      -0.492469       -13.4008
  32   1.0000      -0.487431       -13.2637
  33   1.0000      -0.470034       -12.7903
  34   1.0000      -0.455441       -12.3932
  35   1.0000      -0.447769       -12.1844
  36   1.0000      -0.427624       -11.6362
  37   1.0000      -0.419626       -11.4186
  38   1.0000      -0.419446       -11.4137
  39   1.0000      -0.414899       -11.2900
  40   1.0000      -0.409265       -11.1367
  41   1.0000      -0.397719       -10.8225
  42   1.0000      -0.383839       -10.4448
  43   1.0000      -0.379579       -10.3289
  44   1.0000      -0.371835       -10.1181
  45   1.0000      -0.364907        -9.9296
  46   1.0000      -0.351346        -9.5606
  47   1.0000      -0.348903        -9.4941
  48   1.0000      -0.338491        -9.2108
  49   1.0000      -0.333373        -9.0715
  50   1.0000      -0.329319        -8.9612
  51   1.0000      -0.324281        -8.8241
  52   1.0000      -0.320325        -8.7165
  53   1.0000      -0.319927        -8.7057
  54   1.0000      -0.301232        -8.1970
  55   1.0000      -0.273091        -7.4312
  56   1.0000      -0.257903        -7.0179
  57   1.0000      -0.225710        -6.1419
  58   0.0000      -0.083438        -2.2705
  59   0.0000      -0.023527        -0.6402
  60   0.0000       0.017055         0.4641
  61   0.0000       0.020598         0.5605
  62   0.0000       0.023761         0.6466

MULLIKEN ATOMIC CHARGES AND SPIN POPULATIONS
--------------------------------------------
   0 C :    0.014055    0.026012
   1 C :    0.242412    0.222059
   2 C :    0.475782   -0.135799
   3 C :   -0.445902    0.211907
   4 C :    0.436200   -0.096023
   5 C :    0.281210    0.245727
   6 C :   -0.381931   -0.117237
   7 H :    0.121063   -0.011513
   8 H :    0.117547    0.005379
   9 C :   -0.586339    0.745610
  10 H :    0.151822   -0.030145
  11 H :    0.149847   -0.030223
  12 C :   -0.426862   -0.013737
  13 H :    0.136804    0.002037
  14 H :    0.141558    0.005334
  15 C :   -0.264024    0.010716
  16 H :    0.158391   -0.001187
  17 H :    0.155033   -0.000410
  18 C :   -0.512529    0.000904
  19 H :    0.161549   -0.000015
  20 H :    0.162573    0.000218
  21 C :   -0.388360   -0.017849
  22 H :    0.156329    0.011432
  23 H :    0.155464    0.011423
  24 C :   -0.268220    0.000964
  25 H :    0.141141    0.000242
  26 H :    0.140766    0.000231
  27 C :   -0.263276   -0.000290
  28 H :    0.145434    0.000049
  29 H :    0.145467    0.000052
  30 C :   -0.512633   -0.000098
  31 H :    0.159244    0.000025
  32 H :    0.159589    0.000024
  33 C :   -0.539291   -0.048045
  34 H :    0.182718    0.001958
  35 H :    0.151576    0.000274
  36 H :    0.145791   -0.000006
Sum of atomic charges         :   -0.0000000

LOEWDIN ATOMIC CHARGES AND SPIN POPULATIONS
-------------------------------------------
   0 C :   -0.029178    0.013862
   1 C :   -0.043444    0.180862
   2 C :   -0.088878   -0.071561
   3 C :    0.009778    0.176553
   4 C :   -0.081005   -0.059077
   5 C :   -0.033981    0.193706
   6 C :   -0.038062   -0.066969
   7 H :    0.058911    0.000489
   8 H :    0.055658   -0.000666
   9 C :   -0.029441    0.624830
  10 H :    0.034123    0.005130
  11 H :    0.036058    0.004096
  12 C :   -0.057123    0.000728
  13 H :    0.049451    0.001282
  14 H :    0.049579    0.003512
  15 C :   -0.077291    0.009959
  16 H :    0.044036    0.000261
  17 H :    0.043777    0.000220
  18 C :   -0.077817    0.000869
  19 H :    0.033995    0.000014
  20 H :    0.034163    0.000135
  21 C :   -0.044994    0.001884
  22 H :    0.060329    0.009123
  23 H :    0.060446    0.009022
  24 C :   -0.080930    0.000210
  25 H :    0.043978    0.000024
  26 H :    0.043715    0.000024
  27 C :   -0.089975   -0.000009
  28 H :    0.041182    0.000063
  29 H :    0.041229    0.000065
  30 C :   -0.079194   -0.000039
  31 H :    0.033738    0.000016
  32 H :    0.033848    0.000016
  33 C :   -0.065877   -0.038639
  34 H :    0.044689   -0.000233
  35 H :    0.032789    0.000244
  36 H :    0.031718   -0.000007

  Mayer bond orders larger than 0.100000
B(  0-C ,  4-C ) :   0.9204 B(  0-C , 33-C ) :   2.7161 B(  1-C ,  2-C ) :   1.3682
B(  1-C ,  5-C ) :   0.1110 B(  1-C ,  6-C ) :   1.5045 B(  1-C ,  9-C ) :   0.1111
B(  1-C , 12-C ) :   0.8202 B(  2-C ,  3-C ) :   1.2574 B(  2-C ,  4-C ) :   0.1128
B(  2-C ,  6-C ) :   0.1408 B(  2-C ,  9-C ) :   1.0995 B(  3-C ,  4-C ) :   1.4715
B(  3-C ,  7-H ) :   0.9815 B(  3-C ,  9-C ) :   0.1390 B(  4-C ,  5-C ) :   1.3372
B(  5-C ,  6-C ) :   1.4103 B(  5-C , 21-C ) :   0.9409 B(  6-C ,  8-H ) :   0.9784
B(  9-C , 10-H ) :   0.9647 B(  9-C , 11-H ) :   0.9816 B( 12-C , 13-H ) :   0.9915
B( 12-C , 14-H ) :   0.9714 B( 12-C , 15-C ) :   0.9752 B( 15-C , 16-H ) :   0.9710
B( 15-C , 17-H ) :   0.9738 B( 15-C , 18-C ) :   0.9522 B( 18-C , 19-H ) :   0.9732
B( 18-C , 20-H ) :   0.9724 B( 18-C , 35-H ) :   0.9709 B( 21-C , 22-H ) :   0.9581
B( 21-C , 23-H ) :   0.9584 B( 21-C , 24-C ) :   1.0184 B( 24-C , 25-H ) :   0.9619
B( 24-C , 26-H ) :   0.9620 B( 24-C , 27-C ) :   0.9856 B( 27-C , 28-H ) :   0.9715
B( 27-C , 29-H ) :   0.9718 B( 27-C , 30-C ) :   0.9540 B( 30-C , 31-H ) :   0.9732
B( 30-C , 32-H ) :   0.9730 B( 30-C , 36-H ) :   0.9678 B( 33-C , 34-H ) :   0.9811

FINAL SINGLE POINT ENERGY      -621.921231970461

DIPOLE MOMENT
-------------
                                X             Y             Z
Electronic contribution:    -11.63439      14.70428      -1.62637
Nuclear contribution   :     11.92305     -15.03732       1.66818
                        -----------------------------------------
Total Dipole Moment    :      0.28866      -0.33304       0.04180
                        -----------------------------------------
Magnitude (a.u.)       :      0.44270
Magnitude (Debye)      :      1.12526

Rotational constants in cm-1:     0.018569     0.010157     0.006768
Rotational constants in MHz :   556.687373   304.513693   202.914119

CHEMICAL SHIELDING SUMMARY (ppm)  --  Orbital contribution
----------------------------------------------------------

  Nucleus  Element    Isotropic     Anisotropy
  -------  -------  ------------   ------------
      7       H           24.460          8.679
      8       H           24.933         13.227
     10       H           26.514          6.935
     11       H           26.672          4.731
     13       H           29.562          5.645
     14       H           29.044          3.987
     16       H           30.033          5.558
     17       H           30.417          5.308
     19       H           30.999          8.228
     20       H           31.026          8.077
     22       H           29.049          5.780
     23       H           29.063          5.949
     25       H           30.259          4.784
     26       H           30.243          5.100
     28       H           30.374          6.524
     29       H           30.377          6.590
     31       H           30.982          7.998
     32       H           30.985          8.024
     34       H           28.786         11.109
     35       H           30.762         10.389
     36       H           30.737         10.391

                             ****ORCA TERMINATED NORMALLY****
TOTAL RUN TIME: 0 days 0 hours 28 minutes 37 seconds 592 msec
