                         Program Version 5.0.4 -  RELEASE  -
|  1> ! B3LYP EPR-II AUTOAUX
|  2> %pal nprocs 16 end
|  3> *XYZFile 0 2 opt.xyz
|  4> %EPRNMR
|  5>         GTENSOR   TRUE
|  6>         NUCLEI    = ALL H {SHIFT, AISO, ADIP, AORB}
|  7>         ORI       GIAO
|  8> END
|  9>
| 10>                          ****END OF INPUT****

CARTESIAN COORDINATES (ANGSTROEM)
---------------------------------
  C     -2.631597    0.129889    0.152946
  C      1.575864   -0.218018   -0.504992
  C      0.963822    1.083546   -0.471921
  C     -0.443340    1.138551   -0.248119
  C     -1.220279   -0.005180   -0.065902
  C     -0.611010   -1.294596   -0.103795
  C      0.773999   -1.347005   -0.323995
  H     -0.932113    2.114973   -0.219804
  H      1.262338   -2.323049   -0.360688
  C      1.682287    2.282286   -0.654363
  H      2.755459    2.297223   -0.838416
  H      1.162943    3.241730   -0.622224
  C      3.065834   -0.388546   -0.698656
  H      3.262023   -1.404533   -1.082470
  H      3.432977    0.306369   -1.474054
  C      3.887515   -0.182955    0.591465
  H      3.688811    0.825725    0.993912
  H      3.528649   -0.892624    1.358202
  C      5.390342   -0.369448    0.371431
  H      5.781137    0.351469   -0.367554
  H      5.618742   -1.381978   -0.004350
  C     -1.464202   -2.531527    0.084086
  H     -2.003034   -2.436934    1.045488
  H     -2.265137   -2.516675   -0.678829
  C     -0.750622   -3.885261    0.036886
  H     -0.229468   -4.002281   -0.931186
  H      0.033199   -3.924469    0.815700
  C     -1.711359   -5.064693    0.232430
  H     -2.238010   -4.948281    1.197733
  H     -2.495639   -5.026358   -0.546048
  C     -1.012747   -6.426102    0.189580
  H     -0.246895   -6.508811    0.980041
  H     -0.505961   -6.586065   -0.777902
  C     -3.826626    0.249482    0.342032
  H     -4.879280    0.361416    0.513224
  H      5.954180   -0.226136    1.307646
  H     -1.728336   -7.252292    0.331363

 Total Charge           Charge          ....    0
 Multiplicity           Mult            ....    2
 Number of Electrons    NEL             ....  117
 Basis Dimension        Dim             ....  419

ORBITAL ENERGIES
----------------
                 SPIN UP ORBITALS
  NO   OCC          E(Eh)            E(eV)
   0   1.0000     -10.216884      -278.0156
   1   1.0000     -10.210572      -277.8438
   2   1.0000     -10.206364      -277.7293
   3   1.0000     -10.205814      -277.7143
   4   1.0000     -10.202760      -277.6312
   5   1.0000     -10.200512      -277.5700
   6   1.0000     -10.193218      -277.3716
   7   1.0000     -10.192897      -277.3628
   8   1.0000     -10.189756      -277.2774
   9   1.0000     -10.187896      -277.2267
  10   1.0000     -10.186747      -277.1955
  11   1.0000     -10.185580      -277.1637
  12   1.0000     -10.182602      -277.0827
  13   1.0000     -10.182306      -277.0746
  14   1.0000     -10.175998      -276.9030
  15   1.0000     -10.173626      -276.8384
  16   1.0000      -0.868836       -23.6422
  17   1.0000      -0.813602       -22.1392
  18   1.0000      -0.795904       -21.6577
  19   1.0000      -0.775768       -21.1097
  20   1.0000      -0.763964       -20.7885
  21   1.0000      -0.731996       -19.9186
  22   1.0000      -0.723617       -19.6906
  23   1.0000      -0.684012       -18.6129
  24   1.0000      -0.669001       -18.2044
  25   1.0000      -0.623840       -16.9755
  26   1.0000      -0.611243       -16.6328
  27   1.0000      -0.591062       -16.0836
  28   1.0000      -0.575962       -15.6727
  29   1.0000      -0.564814       -15.3694
  30   1.0000      -0.526265       -14.3204
  31   1.0000      -0.494024       -13.4431
  32   1.0000      -0.489749       -13.3268
  33   1.0000      -0.470030       -12.7902
  34   1.0000      -0.457536       -12.4502
  35   1.0000      -0.447977       -12.1901
  36   1.0000      -0.428501       -11.6601
  37   1.0000      -0.421649       -11.4737
  38   1.0000      -0.420717       -11.4483
  39   1.0000      -0.417982       -11.3739
  40   1.0000      -0.411169       -11.1885
  41   1.0000      -0.400320       -10.8932
  42   1.0000      -0.387247       -10.5375
  43   1.0000      -0.380178       -10.3452
  44   1.0000      -0.374482       -10.1902
  45   1.0000      -0.366595        -9.9756
  46   1.0000      -0.351983        -9.5780
  47   1.0000      -0.350869        -9.5476
  48   1.0000      -0.339399        -9.2355
  49   1.0000      -0.334580        -9.1044
  50   1.0000      -0.328214        -8.9312
  51   1.0000      -0.322839        -8.7849
  52   1.0000      -0.321873        -8.7586
  53   1.0000      -0.321023        -8.7355
  54   1.0000      -0.306701        -8.3458
  55   1.0000      -0.276219        -7.5163
  56   1.0000      -0.273933        -7.4541
  57   1.0000      -0.234278        -6.3750
  58   1.0000      -0.178367        -4.8536
  59   0.0000      -0.033295        -0.9060
  60   0.0000       0.006977         0.1898
  61   0.0000       0.016895         0.4597
  62   0.0000       0.023245         0.6325
  63   0.0000       0.025183         0.6853

                 SPIN DOWN ORBITALS
  NO   OCC          E(Eh)            E(eV)
   0   1.0000     -10.218505      -278.0597
   1   1.0000     -10.208370      -277.7839
   2   1.0000     -10.206792      -277.7409
   3   1.0000     -10.202685      -277.6292
   4   1.0000     -10.202348      -277.6200
   5   1.0000     -10.197166      -277.4790
   6   1.0000     -10.193845      -277.3886
   7   1.0000     -10.191386      -277.3217
   8   1.0000     -10.188127      -277.2330
   9   1.0000     -10.186963      -277.2014
  10   1.0000     -10.185310      -277.1564
  11   1.0000     -10.182968      -277.0927
  12   1.0000     -10.182600      -277.0826
  13   1.0000     -10.182307      -277.0746
  14   1.0000     -10.175985      -276.9026
  15   1.0000     -10.173628      -276.8385
  16   1.0000      -0.865122       -23.5412
  17   1.0000      -0.810410       -22.0524
  18   1.0000      -0.794973       -21.6323
  19   1.0000      -0.772637       -21.0245
  20   1.0000      -0.762386       -20.7456
  21   1.0000      -0.730076       -19.8664
  22   1.0000      -0.719872       -19.5887
  23   1.0000      -0.681854       -18.5542
  24   1.0000      -0.661701       -18.0058
  25   1.0000      -0.617662       -16.8074
  26   1.0000      -0.608638       -16.5619
  27   1.0000      -0.589388       -16.0381
  28   1.0000      -0.575090       -15.6490
  29   1.0000      -0.563381       -15.3304
  30   1.0000      -0.524378       -14.2690
  31   1.0000      -0.492418       -13.3994
  32   1.0000      -0.487804       -13.2738
  33   1.0000      -0.469108       -12.7651
  34   1.0000      -0.455363       -12.3911
  35   1.0000      -0.447372       -12.1736
  36   1.0000      -0.427092       -11.6218
  37   1.0000      -0.419491       -11.4149
  38   1.0000      -0.418615       -11.3911
  39   1.0000      -0.415803       -11.3146
  40   1.0000      -0.409189       -11.1346
  41   1.0000      -0.397043       -10.8041
  42   1.0000      -0.384357       -10.4589
  43   1.0000      -0.377832       -10.2813
  44   1.0000      -0.371698       -10.1144
  45   1.0000      -0.365443        -9.9442
  46   1.0000      -0.350870        -9.5476
  47   1.0000      -0.347653        -9.4601
  48   1.0000      -0.337956        -9.1962
  49   1.0000      -0.333885        -9.0855
  50   1.0000      -0.327578        -8.9139
  51   1.0000      -0.322074        -8.7641
  52   1.0000      -0.321056        -8.7364
  53   1.0000      -0.320119        -8.7109
  54   1.0000      -0.302148        -8.2219
  55   1.0000      -0.273837        -7.4515
  56   1.0000      -0.258374        -7.0307
  57   1.0000      -0.226169        -6.1544
  58   0.0000      -0.083391        -2.2692
  59   0.0000      -0.022998        -0.6258
  60   0.0000       0.016978         0.4620
  61   0.0000       0.021128         0.5749
  62   0.0000       0.023675         0.6442

MULLIKEN ATOMIC CHARGES AND SPIN POPULATIONS
--------------------------------------------
   0 C :    0.019197    0.025059
   1 C :    0.245105    0.222093
   2 C :    0.484929   -0.133514
   3 C :   -0.450339    0.210722
   4 C :    0.440222   -0.094889
   5 C :    0.289004    0.245190
   6 C :   -0.384173   -0.115995
   7 H :    0.118746   -0.011564
   8 H :    0.115618    0.005371
   9 C :   -0.588677    0.741886
  10 H :    0.150217   -0.030352
  11 H :    0.148859   -0.030369
  12 C :   -0.424889   -0.013551
  13 H :    0.134337    0.002225
  14 H :    0.138240    0.005308
  15 C :   -0.255605    0.010439
  16 H :    0.155171   -0.001189
  17 H :    0.152243   -0.000392
  18 C :   -0.509252    0.000918
  19 H :    0.159638   -0.000018
  20 H :    0.160496    0.000227
  21 C :   -0.386070   -0.018101
  22 H :    0.153526    0.011825
  23 H :    0.153164    0.012171
  24 C :   -0.261904    0.000972
  25 H :    0.137745    0.000247
  26 H :    0.138279    0.000245
  27 C :   -0.255100   -0.000282
  28 H :    0.142497    0.000050
  29 H :    0.142569    0.000052
  30 C :   -0.509703   -0.000098
  31 H :    0.157178    0.000028
  32 H :    0.157395    0.000027
  33 C :   -0.544199   -0.046933
  34 H :    0.181505    0.001918
  35 H :    0.149913    0.000283
  36 H :    0.144120   -0.000006
Sum of atomic charges         :   -0.0000000

LOEWDIN ATOMIC CHARGES AND SPIN POPULATIONS
-------------------------------------------
   0 C :   -0.030349    0.013158
   1 C :   -0.045157    0.181044
   2 C :   -0.091469   -0.069563
   3 C :    0.008905    0.175788
   4 C :   -0.081593   -0.058239
   5 C :   -0.035669    0.193378
   6 C :   -0.039365   -0.065848
   7 H :    0.061176    0.000301
   8 H :    0.058063   -0.000579
   9 C :   -0.032879    0.621918
  10 H :    0.036687    0.004496
  11 H :    0.038731    0.003456
  12 C :   -0.060970    0.000874
  13 H :    0.051733    0.001463
  14 H :    0.051481    0.003475
  15 C :   -0.083382    0.009833
  16 H :    0.046757    0.000204
  17 H :    0.046515    0.000211
  18 C :   -0.084114    0.000875
  19 H :    0.036395    0.000013
  20 H :    0.036488    0.000139
  21 C :   -0.049181    0.001928
  22 H :    0.062840    0.009412
  23 H :    0.062958    0.009571
  24 C :   -0.085665    0.000212
  25 H :    0.046243    0.000026
  26 H :    0.046256    0.000023
  27 C :   -0.095807    0.000007
  28 H :    0.043751    0.000067
  29 H :    0.043790    0.000070
  30 C :   -0.085328   -0.000037
  31 H :    0.036064    0.000019
  32 H :    0.036202    0.000018
  33 C :   -0.067389   -0.037762
  34 H :    0.048246   -0.000191
  35 H :    0.035062    0.000249
  36 H :    0.033977   -0.000006

  Mayer bond orders larger than 0.100000
B(  0-C ,  4-C ) :   0.9232 B(  0-C , 33-C ) :   2.7113 B(  1-C ,  2-C ) :   1.3735
B(  1-C ,  5-C ) :   0.1157 B(  1-C ,  6-C ) :   1.5067 B(  1-C ,  9-C ) :   0.1144
B(  1-C , 12-C ) :   0.8164 B(  2-C ,  3-C ) :   1.2545 B(  2-C ,  4-C ) :   0.1182
B(  2-C ,  6-C ) :   0.1428 B(  2-C ,  9-C ) :   1.0963 B(  3-C ,  4-C ) :   1.4736
B(  3-C ,  7-H ) :   0.9833 B(  3-C ,  9-C ) :   0.1415 B(  4-C ,  5-C ) :   1.3381
B(  5-C ,  6-C ) :   1.4112 B(  5-C , 21-C ) :   0.9408 B(  6-C ,  8-H ) :   0.9793
B(  9-C , 10-H ) :   0.9644 B(  9-C , 11-H ) :   0.9821 B( 12-C , 13-H ) :   0.9915
B( 12-C , 14-H ) :   0.9717 B( 12-C , 15-C ) :   0.9775 B( 15-C , 16-H ) :   0.9710
B( 15-C , 17-H ) :   0.9737 B( 15-C , 18-C ) :   0.9520 B( 18-C , 19-H ) :   0.9729
B( 18-C , 20-H ) :   0.9725 B( 18-C , 35-H ) :   0.9710 B( 21-C , 22-H ) :   0.9581
B( 21-C , 23-H ) :   0.9579 B( 21-C , 24-C ) :   1.0199 B( 24-C , 25-H ) :   0.9605
B( 24-C , 26-H ) :   0.9615 B( 24-C , 27-C ) :   0.9874 B( 27-C , 28-H ) :   0.9708
B( 27-C , 29-H ) :   0.9713 B( 27-C , 30-C ) :   0.9537 B( 30-C , 31-H ) :   0.9731
B( 30-C , 32-H ) :   0.9730 B( 30-C , 36-H ) :   0.9676 B( 33-C , 34-H ) :   0.9823

FINAL SINGLE POINT ENERGY      -621.920320244233

DIPOLE MOMENT
-------------
                                X             Y             Z
Electronic contribution:    -11.67641      14.75289      -1.68187
Nuclear contribution   :     11.95169     -15.07875       1.72848
                        -----------------------------------------
Total Dipole Moment    :      0.27528      -0.32585       0.04661
                        -----------------------------------------
Magnitude (a.u.)       :      0.42910
Magnitude (Debye)      :      1.09070

Rotational constants in cm-1:     0.018509     0.010263     0.006806
Rotational constants in MHz :   554.888538   307.670825   204.032667

CHEMICAL SHIELDING SUMMARY (ppm)  --  Orbital contribution
----------------------------------------------------------

  Nucleus  Element    Isotropic     Anisotropy
  -------  -------  ------------   ------------
      7       H           24.430          8.619
      8       H           24.883         13.191
     10       H           26.401          6.934
     11       H           26.580          4.704
     13       H           29.411          5.551
     14       H           28.872          4.017
     16       H           29.830          5.492
     17       H           30.219          5.290
     19       H           30.761          8.197
     20       H           30.783          7.994
     22       H           28.856          5.818
     23       H           28.879          5.820
     25       H           30.060          4.779
     26       H           30.066          5.030
     28       H           30.163          6.494
     29       H           30.164          6.549
     31       H           30.740          7.929
     32       H           30.740          7.966
     34       H           28.648         11.060
     35       H           30.518         10.260
     36       H           30.497         10.268

                             ****ORCA TERMINATED NORMALLY****
TOTAL RUN TIME: 0 days 0 hours 28 minutes 57 seconds 721 msec
