                         Program Version 5.0.4 -  RELEASE  -
|  1> ! B3LYP EPR-II AUTOAUX
|  2> %pal nprocs 16 end
|  3> *XYZFile 0 2 opt.xyz
|  4> %EPRNMR
|  5>         GTENSOR   TRUE
|  6>         NUCLEI    = ALL H {SHIFT, AISO, ADIP, AORB}
|  7>         ORI       GIAO
|  8> END
|  9>
| 10>                          ****END OF INPUT****

CARTESIAN COORDINATES (ANGSTROEM)
---------------------------------
  C     -2.631597    0.129889    0.152946
  C      1.575864   -0.218018   -0.504992
  C      0.963822    1.083546   -0.471921
  C     -0.443340    1.138551   -0.248119
  C     -1.220279   -0.005180   -0.065902
  C     -0.611010   -1.294596   -0.103795
  C      0.773999   -1.347005   -0.323995
  H     -0.932113    2.114973   -0.219804
  H      1.262338   -2.323049   -0.360688
  C      1.682287    2.282286   -0.654363
  H      2.755459    2.297223   -0.838416
  H      1.162943    3.241730   -0.622224
  C      3.065834   -0.388546   -0.698656
  H      3.262023   -1.404533   -1.082470
  H      3.432977    0.306369   -1.474054
  C      3.887515   -0.182955    0.591465
  H      3.688811    0.825725    0.993912
  H      3.528649   -0.892624    1.358202
  C      5.390342   -0.369448    0.371431
  H      5.781137    0.351469   -0.367554
  H      5.618742   -1.381978   -0.004350
  C     -1.464202   -2.531527    0.084086
  H     -2.003034   -2.436934    1.045488
  H     -2.265137   -2.516675   -0.678829
  C     -0.750622   -3.885261    0.036886
  H     -0.229468   -4.002281   -0.931186
  H      0.033199   -3.924469    0.815700
  C     -1.711359   -5.064693    0.232430
  H     -2.238010   -4.948281    1.197733
  H     -2.495639   -5.026358   -0.546048
  C     -1.012747   -6.426102    0.189580
  H     -0.246895   -6.508811    0.980041
  H     -0.505961   -6.586065   -0.777902
  C     -3.826626    0.249482    0.342032
  H     -4.879280    0.361416    0.513224
  H      5.954180   -0.226136    1.307646
  H     -1.728336   -7.252292    0.331363

 Total Charge           Charge          ....    0
 Multiplicity           Mult            ....    2
 Number of Electrons    NEL             ....  117
 Basis Dimension        Dim             ....  419

ORBITAL ENERGIES
----------------
                 SPIN UP ORBITALS
  NO   OCC          E(Eh)            E(eV)
   0   1.0000     -10.216928      -278.0167
   1   1.0000     -10.210585      -277.8441
   2   1.0000     -10.206373      -277.7295
   3   1.0000     -10.205803      -277.7140
   4   1.0000     -10.202737      -277.6306
   5   1.0000     -10.200464      -277.5687
   6   1.0000     -10.193198      -277.3710
   7   1.0000     -10.192896      -277.3628
   8   1.0000     -10.189767      -277.2777
   9   1.0000     -10.187896      -277.2267
  10   1.0000     -10.186746      -277.1955
  11   1.0000     -10.185553      -277.1630
  12   1.0000     -10.182596      -277.0825
  13   1.0000     -10.182308      -277.0747
  14   1.0000     -10.175997      -276.9030
  15   1.0000     -10.173649      -276.8391
  16   1.0000      -0.868838       -23.6423
  17   1.0000      -0.813603       -22.1393
  18   1.0000      -0.795902       -21.6576
  19   1.0000      -0.775762       -21.1096
  20   1.0000      -0.763962       -20.7885
  21   1.0000      -0.731991       -19.9185
  22   1.0000      -0.723614       -19.6905
  23   1.0000      -0.684012       -18.6129
  24   1.0000      -0.669001       -18.2044
  25   1.0000      -0.623840       -16.9755
  26   1.0000      -0.611241       -16.6327
  27   1.0000      -0.591062       -16.0836
  28   1.0000      -0.575961       -15.6727
  29   1.0000      -0.564816       -15.3694
  30   1.0000      -0.526262       -14.3203
  31   1.0000      -0.494021       -13.4430
  32   1.0000      -0.489749       -13.3268
  33   1.0000      -0.470032       -12.7902
  34   1.0000      -0.457534       -12.4501
  35   1.0000      -0.447972       -12.1899
  36   1.0000      -0.428500       -11.6601
  37   1.0000      -0.421654       -11.4738
  38   1.0000      -0.420718       -11.4483
  39   1.0000      -0.417982       -11.3739
  40   1.0000      -0.411167       -11.1884
  41   1.0000      -0.400318       -10.8932
  42   1.0000      -0.387243       -10.5374
  43   1.0000      -0.380179       -10.3452
  44   1.0000      -0.374482       -10.1902
  45   1.0000      -0.366597        -9.9756
  46   1.0000      -0.351983        -9.5779
  47   1.0000      -0.350869        -9.5476
  48   1.0000      -0.339395        -9.2354
  49   1.0000      -0.334580        -9.1044
  50   1.0000      -0.328211        -8.9311
  51   1.0000      -0.322841        -8.7849
  52   1.0000      -0.321875        -8.7587
  53   1.0000      -0.321024        -8.7355
  54   1.0000      -0.306696        -8.3456
  55   1.0000      -0.276220        -7.5163
  56   1.0000      -0.273924        -7.4539
  57   1.0000      -0.234272        -6.3749
  58   1.0000      -0.178363        -4.8535
  59   0.0000      -0.033293        -0.9060
  60   0.0000       0.006976         0.1898
  61   0.0000       0.016896         0.4598
  62   0.0000       0.023245         0.6325
  63   0.0000       0.025185         0.6853

                 SPIN DOWN ORBITALS
  NO   OCC          E(Eh)            E(eV)
   0   1.0000     -10.218549      -278.0609
   1   1.0000     -10.208354      -277.7834
   2   1.0000     -10.206802      -277.7412
   3   1.0000     -10.202698      -277.6295
   4   1.0000     -10.202321      -277.6193
   5   1.0000     -10.197117      -277.4777
   6   1.0000     -10.193829      -277.3882
   7   1.0000     -10.191398      -277.3220
   8   1.0000     -10.188128      -277.2331
   9   1.0000     -10.186963      -277.2014
  10   1.0000     -10.185282      -277.1556
  11   1.0000     -10.182969      -277.0927
  12   1.0000     -10.182594      -277.0825
  13   1.0000     -10.182309      -277.0747
  14   1.0000     -10.175983      -276.9026
  15   1.0000     -10.173651      -276.8391
  16   1.0000      -0.865123       -23.5412
  17   1.0000      -0.810410       -22.0524
  18   1.0000      -0.794972       -21.6323
  19   1.0000      -0.772631       -21.0243
  20   1.0000      -0.762384       -20.7455
  21   1.0000      -0.730070       -19.8662
  22   1.0000      -0.719872       -19.5887
  23   1.0000      -0.681853       -18.5542
  24   1.0000      -0.661702       -18.0058
  25   1.0000      -0.617662       -16.8074
  26   1.0000      -0.608635       -16.5618
  27   1.0000      -0.589388       -16.0381
  28   1.0000      -0.575089       -15.6490
  29   1.0000      -0.563383       -15.3304
  30   1.0000      -0.524375       -14.2690
  31   1.0000      -0.492416       -13.3993
  32   1.0000      -0.487804       -13.2738
  33   1.0000      -0.469109       -12.7651
  34   1.0000      -0.455360       -12.3910
  35   1.0000      -0.447367       -12.1735
  36   1.0000      -0.427091       -11.6217
  37   1.0000      -0.419493       -11.4150
  38   1.0000      -0.418618       -11.3912
  39   1.0000      -0.415803       -11.3146
  40   1.0000      -0.409187       -11.1345
  41   1.0000      -0.397041       -10.8040
  42   1.0000      -0.384353       -10.4588
  43   1.0000      -0.377832       -10.2813
  44   1.0000      -0.371699       -10.1144
  45   1.0000      -0.365444        -9.9442
  46   1.0000      -0.350869        -9.5476
  47   1.0000      -0.347652        -9.4601
  48   1.0000      -0.337952        -9.1961
  49   1.0000      -0.333885        -9.0855
  50   1.0000      -0.327574        -8.9138
  51   1.0000      -0.322075        -8.7641
  52   1.0000      -0.321057        -8.7364
  53   1.0000      -0.320119        -8.7109
  54   1.0000      -0.302142        -8.2217
  55   1.0000      -0.273830        -7.4513
  56   1.0000      -0.258372        -7.0307
  57   1.0000      -0.226169        -6.1544
  58   0.0000      -0.083391        -2.2692
  59   0.0000      -0.022996        -0.6257
  60   0.0000       0.016979         0.4620
  61   0.0000       0.021129         0.5750
  62   0.0000       0.023674         0.6442

MULLIKEN ATOMIC CHARGES AND SPIN POPULATIONS
--------------------------------------------
   0 C :    0.019213    0.025141
   1 C :    0.245070    0.222133
   2 C :    0.484955   -0.133545
   3 C :   -0.450261    0.210743
   4 C :    0.440152   -0.094937
   5 C :    0.288993    0.245269
   6 C :   -0.384181   -0.116027
   7 H :    0.118735   -0.011567
   8 H :    0.115620    0.005371
   9 C :   -0.588686    0.741856
  10 H :    0.150216   -0.030348
  11 H :    0.148859   -0.030366
  12 C :   -0.424888   -0.013557
  13 H :    0.134334    0.002225
  14 H :    0.138240    0.005309
  15 C :   -0.255573    0.010437
  16 H :    0.155167   -0.001189
  17 H :    0.152236   -0.000392
  18 C :   -0.509259    0.000918
  19 H :    0.159637   -0.000018
  20 H :    0.160494    0.000227
  21 C :   -0.386064   -0.018120
  22 H :    0.153525    0.011827
  23 H :    0.153165    0.012173
  24 C :   -0.261893    0.000975
  25 H :    0.137743    0.000247
  26 H :    0.138277    0.000244
  27 C :   -0.255097   -0.000282
  28 H :    0.142497    0.000050
  29 H :    0.142570    0.000052
  30 C :   -0.509727   -0.000098
  31 H :    0.157184    0.000028
  32 H :    0.157400    0.000027
  33 C :   -0.544191   -0.047012
  34 H :    0.181498    0.001927
  35 H :    0.149913    0.000283
  36 H :    0.144125   -0.000006
Sum of atomic charges         :   -0.0000000

LOEWDIN ATOMIC CHARGES AND SPIN POPULATIONS
-------------------------------------------
   0 C :   -0.030335    0.013208
   1 C :   -0.045171    0.181056
   2 C :   -0.091454   -0.069566
   3 C :    0.008958    0.175793
   4 C :   -0.081643   -0.058249
   5 C :   -0.035679    0.193413
   6 C :   -0.039372   -0.065859
   7 H :    0.061172    0.000300
   8 H :    0.058063   -0.000579
   9 C :   -0.032885    0.621893
  10 H :    0.036687    0.004497
  11 H :    0.038730    0.003457
  12 C :   -0.060972    0.000872
  13 H :    0.051732    0.001463
  14 H :    0.051482    0.003475
  15 C :   -0.083362    0.009834
  16 H :    0.046755    0.000204
  17 H :    0.046511    0.000211
  18 C :   -0.084118    0.000875
  19 H :    0.036394    0.000013
  20 H :    0.036486    0.000139
  21 C :   -0.049179    0.001924
  22 H :    0.062839    0.009413
  23 H :    0.062958    0.009572
  24 C :   -0.085656    0.000212
  25 H :    0.046242    0.000026
  26 H :    0.046255    0.000023
  27 C :   -0.095806    0.000007
  28 H :    0.043751    0.000067
  29 H :    0.043790    0.000070
  30 C :   -0.085340   -0.000037
  31 H :    0.036067    0.000019
  32 H :    0.036204    0.000018
  33 C :   -0.067387   -0.037818
  34 H :    0.048242   -0.000188
  35 H :    0.035061    0.000249
  36 H :    0.033979   -0.000006

  Mayer bond orders larger than 0.100000
B(  0-C ,  4-C ) :   0.9232 B(  0-C , 33-C ) :   2.7113 B(  1-C ,  2-C ) :   1.3735
B(  1-C ,  5-C ) :   0.1157 B(  1-C ,  6-C ) :   1.5067 B(  1-C ,  9-C ) :   0.1144
B(  1-C , 12-C ) :   0.8164 B(  2-C ,  3-C ) :   1.2544 B(  2-C ,  4-C ) :   0.1182
B(  2-C ,  6-C ) :   0.1428 B(  2-C ,  9-C ) :   1.0963 B(  3-C ,  4-C ) :   1.4736
B(  3-C ,  7-H ) :   0.9833 B(  3-C ,  9-C ) :   0.1415 B(  4-C ,  5-C ) :   1.3381
B(  5-C ,  6-C ) :   1.4112 B(  5-C , 21-C ) :   0.9408 B(  6-C ,  8-H ) :   0.9792
B(  9-C , 10-H ) :   0.9644 B(  9-C , 11-H ) :   0.9821 B( 12-C , 13-H ) :   0.9915
B( 12-C , 14-H ) :   0.9717 B( 12-C , 15-C ) :   0.9775 B( 15-C , 16-H ) :   0.9710
B( 15-C , 17-H ) :   0.9737 B( 15-C , 18-C ) :   0.9520 B( 18-C , 19-H ) :   0.9729
B( 18-C , 20-H ) :   0.9725 B( 18-C , 35-H ) :   0.9710 B( 21-C , 22-H ) :   0.9581
B( 21-C , 23-H ) :   0.9579 B( 21-C , 24-C ) :   1.0199 B( 24-C , 25-H ) :   0.9605
B( 24-C , 26-H ) :   0.9615 B( 24-C , 27-C ) :   0.9874 B( 27-C , 28-H ) :   0.9708
B( 27-C , 29-H ) :   0.9713 B( 27-C , 30-C ) :   0.9537 B( 30-C , 31-H ) :   0.9731
B( 30-C , 32-H ) :   0.9730 B( 30-C , 36-H ) :   0.9676 B( 33-C , 34-H ) :   0.9823

FINAL SINGLE POINT ENERGY      -621.920319589039

DIPOLE MOMENT
-------------
                                X             Y             Z
Electronic contribution:    -11.67639      14.75304      -1.68186
Nuclear contribution   :     11.95169     -15.07875       1.72848
                        -----------------------------------------
Total Dipole Moment    :      0.27530      -0.32570       0.04662
                        -----------------------------------------
Magnitude (a.u.)       :      0.42900
Magnitude (Debye)      :      1.09044

Rotational constants in cm-1:     0.018509     0.010263     0.006806
Rotational constants in MHz :   554.888538   307.670825   204.032667

CHEMICAL SHIELDING SUMMARY (ppm)  --  Orbital contribution
----------------------------------------------------------

  Nucleus  Element    Isotropic     Anisotropy
  -------  -------  ------------   ------------
      7       H           24.431          8.617
      8       H           24.882         13.193
     10       H           26.401          6.934
     11       H           26.581          4.703
     13       H           29.411          5.551
     14       H           28.873          4.016
     16       H           29.830          5.494
     17       H           30.218          5.291
     19       H           30.762          8.195
     20       H           30.784          7.994
     22       H           28.857          5.817
     23       H           28.879          5.820
     25       H           30.060          4.779
     26       H           30.067          5.030
     28       H           30.163          6.494
     29       H           30.164          6.550
     31       H           30.740          7.928
     32       H           30.740          7.964
     34       H           28.648         11.061
     35       H           30.519         10.259
     36       H           30.495         10.269

                             ****ORCA TERMINATED NORMALLY****
TOTAL RUN TIME: 0 days 0 hours 28 minutes 38 seconds 483 msec
