                         Program Version 5.0.4 -  RELEASE  -
|  1> ! B3LYP EPR-II AUTOAUX
|  2> %pal nprocs 16 end
|  3> *XYZFile 0 2 opt.xyz
|  4> %EPRNMR
|  5>         GTENSOR   TRUE
|  6>         NUCLEI    = ALL H {SHIFT, AISO, ADIP, AORB}
|  7>         ORI       CenterOfElCharge
|  8> END
|  9>
| 10>                          ****END OF INPUT****

CARTESIAN COORDINATES (ANGSTROEM)
---------------------------------
  C     -2.631597    0.129889    0.152946
  C      1.575864   -0.218018   -0.504992
  C      0.963822    1.083546   -0.471921
  C     -0.443340    1.138551   -0.248119
  C     -1.220279   -0.005180   -0.065902
  C     -0.611010   -1.294596   -0.103795
  C      0.773999   -1.347005   -0.323995
  H     -0.932113    2.114973   -0.219804
  H      1.262338   -2.323049   -0.360688
  C      1.682287    2.282286   -0.654363
  H      2.755459    2.297223   -0.838416
  H      1.162943    3.241730   -0.622224
  C      3.065834   -0.388546   -0.698656
  H      3.262023   -1.404533   -1.082470
  H      3.432977    0.306369   -1.474054
  C      3.887515   -0.182955    0.591465
  H      3.688811    0.825725    0.993912
  H      3.528649   -0.892624    1.358202
  C      5.390342   -0.369448    0.371431
  H      5.781137    0.351469   -0.367554
  H      5.618742   -1.381978   -0.004350
  C     -1.464202   -2.531527    0.084086
  H     -2.003034   -2.436934    1.045488
  H     -2.265137   -2.516675   -0.678829
  C     -0.750622   -3.885261    0.036886
  H     -0.229468   -4.002281   -0.931186
  H      0.033199   -3.924469    0.815700
  C     -1.711359   -5.064693    0.232430
  H     -2.238010   -4.948281    1.197733
  H     -2.495639   -5.026358   -0.546048
  C     -1.012747   -6.426102    0.189580
  H     -0.246895   -6.508811    0.980041
  H     -0.505961   -6.586065   -0.777902
  C     -3.826626    0.249482    0.342032
  H     -4.879280    0.361416    0.513224
  H      5.954180   -0.226136    1.307646
  H     -1.728336   -7.252292    0.331363

 Total Charge           Charge          ....    0
 Multiplicity           Mult            ....    2
 Number of Electrons    NEL             ....  117
 Basis Dimension        Dim             ....  419

ORBITAL ENERGIES
----------------
                 SPIN UP ORBITALS
  NO   OCC          E(Eh)            E(eV)
   0   1.0000     -10.216879      -278.0154
   1   1.0000     -10.210564      -277.8436
   2   1.0000     -10.206365      -277.7293
   3   1.0000     -10.205820      -277.7145
   4   1.0000     -10.202753      -277.6310
   5   1.0000     -10.200520      -277.5703
   6   1.0000     -10.193211      -277.3714
   7   1.0000     -10.192901      -277.3629
   8   1.0000     -10.189752      -277.2772
   9   1.0000     -10.187895      -277.2267
  10   1.0000     -10.186744      -277.1954
  11   1.0000     -10.185581      -277.1638
  12   1.0000     -10.182603      -277.0827
  13   1.0000     -10.182308      -277.0747
  14   1.0000     -10.175999      -276.9030
  15   1.0000     -10.173628      -276.8385
  16   1.0000      -0.868836       -23.6422
  17   1.0000      -0.813601       -22.1392
  18   1.0000      -0.795904       -21.6576
  19   1.0000      -0.775768       -21.1097
  20   1.0000      -0.763963       -20.7885
  21   1.0000      -0.731994       -19.9186
  22   1.0000      -0.723615       -19.6906
  23   1.0000      -0.684011       -18.6129
  24   1.0000      -0.669000       -18.2044
  25   1.0000      -0.623839       -16.9755
  26   1.0000      -0.611243       -16.6328
  27   1.0000      -0.591062       -16.0836
  28   1.0000      -0.575962       -15.6727
  29   1.0000      -0.564814       -15.3694
  30   1.0000      -0.526264       -14.3204
  31   1.0000      -0.494022       -13.4430
  32   1.0000      -0.489749       -13.3267
  33   1.0000      -0.470030       -12.7902
  34   1.0000      -0.457537       -12.4502
  35   1.0000      -0.447976       -12.1901
  36   1.0000      -0.428501       -11.6601
  37   1.0000      -0.421650       -11.4737
  38   1.0000      -0.420718       -11.4483
  39   1.0000      -0.417982       -11.3739
  40   1.0000      -0.411169       -11.1885
  41   1.0000      -0.400320       -10.8933
  42   1.0000      -0.387247       -10.5375
  43   1.0000      -0.380178       -10.3452
  44   1.0000      -0.374482       -10.1902
  45   1.0000      -0.366595        -9.9756
  46   1.0000      -0.351983        -9.5780
  47   1.0000      -0.350869        -9.5476
  48   1.0000      -0.339398        -9.2355
  49   1.0000      -0.334580        -9.1044
  50   1.0000      -0.328214        -8.9311
  51   1.0000      -0.322839        -8.7849
  52   1.0000      -0.321873        -8.7586
  53   1.0000      -0.321023        -8.7355
  54   1.0000      -0.306700        -8.3457
  55   1.0000      -0.276218        -7.5163
  56   1.0000      -0.273929        -7.4540
  57   1.0000      -0.234275        -6.3750
  58   1.0000      -0.178364        -4.8535
  59   0.0000      -0.033293        -0.9059
  60   0.0000       0.006976         0.1898
  61   0.0000       0.016896         0.4598
  62   0.0000       0.023245         0.6325
  63   0.0000       0.025185         0.6853

                 SPIN DOWN ORBITALS
  NO   OCC          E(Eh)            E(eV)
   0   1.0000     -10.218502      -278.0596
   1   1.0000     -10.208378      -277.7841
   2   1.0000     -10.206780      -277.7406
   3   1.0000     -10.202683      -277.6291
   4   1.0000     -10.202335      -277.6197
   5   1.0000     -10.197173      -277.4792
   6   1.0000     -10.193844      -277.3886
   7   1.0000     -10.191383      -277.3216
   8   1.0000     -10.188127      -277.2330
   9   1.0000     -10.186961      -277.2013
  10   1.0000     -10.185310      -277.1564
  11   1.0000     -10.182975      -277.0928
  12   1.0000     -10.182601      -277.0827
  13   1.0000     -10.182308      -277.0747
  14   1.0000     -10.175985      -276.9026
  15   1.0000     -10.173630      -276.8385
  16   1.0000      -0.865120       -23.5411
  17   1.0000      -0.810408       -22.0523
  18   1.0000      -0.794973       -21.6323
  19   1.0000      -0.772637       -21.0245
  20   1.0000      -0.762384       -20.7455
  21   1.0000      -0.730074       -19.8663
  22   1.0000      -0.719872       -19.5887
  23   1.0000      -0.681853       -18.5542
  24   1.0000      -0.661701       -18.0058
  25   1.0000      -0.617663       -16.8075
  26   1.0000      -0.608637       -16.5619
  27   1.0000      -0.589388       -16.0381
  28   1.0000      -0.575089       -15.6490
  29   1.0000      -0.563379       -15.3303
  30   1.0000      -0.524378       -14.2691
  31   1.0000      -0.492417       -13.3994
  32   1.0000      -0.487803       -13.2738
  33   1.0000      -0.469107       -12.7651
  34   1.0000      -0.455362       -12.3910
  35   1.0000      -0.447371       -12.1736
  36   1.0000      -0.427092       -11.6218
  37   1.0000      -0.419492       -11.4149
  38   1.0000      -0.418613       -11.3910
  39   1.0000      -0.415803       -11.3146
  40   1.0000      -0.409188       -11.1346
  41   1.0000      -0.397043       -10.8041
  42   1.0000      -0.384357       -10.4589
  43   1.0000      -0.377831       -10.2813
  44   1.0000      -0.371697       -10.1144
  45   1.0000      -0.365442        -9.9442
  46   1.0000      -0.350869        -9.5476
  47   1.0000      -0.347653        -9.4601
  48   1.0000      -0.337955        -9.1962
  49   1.0000      -0.333885        -9.0855
  50   1.0000      -0.327577        -8.9138
  51   1.0000      -0.322074        -8.7641
  52   1.0000      -0.321055        -8.7363
  53   1.0000      -0.320118        -8.7109
  54   1.0000      -0.302146        -8.2218
  55   1.0000      -0.273835        -7.4514
  56   1.0000      -0.258372        -7.0306
  57   1.0000      -0.226170        -6.1544
  58   0.0000      -0.083394        -2.2693
  59   0.0000      -0.022998        -0.6258
  60   0.0000       0.016979         0.4620
  61   0.0000       0.021131         0.5750
  62   0.0000       0.023675         0.6442

MULLIKEN ATOMIC CHARGES AND SPIN POPULATIONS
--------------------------------------------
   0 C :    0.019204    0.025229
   1 C :    0.245081    0.222163
   2 C :    0.484938   -0.133564
   3 C :   -0.450296    0.210760
   4 C :    0.440193   -0.094980
   5 C :    0.289003    0.245337
   6 C :   -0.384179   -0.116054
   7 H :    0.118739   -0.011569
   8 H :    0.115619    0.005372
   9 C :   -0.588686    0.741825
  10 H :    0.150218   -0.030345
  11 H :    0.148860   -0.030362
  12 C :   -0.424885   -0.013562
  13 H :    0.134335    0.002226
  14 H :    0.138240    0.005310
  15 C :   -0.255589    0.010437
  16 H :    0.155170   -0.001188
  17 H :    0.152239   -0.000392
  18 C :   -0.509257    0.000918
  19 H :    0.159637   -0.000018
  20 H :    0.160495    0.000227
  21 C :   -0.386061   -0.018136
  22 H :    0.153524    0.011830
  23 H :    0.153164    0.012176
  24 C :   -0.261900    0.000976
  25 H :    0.137744    0.000247
  26 H :    0.138279    0.000244
  27 C :   -0.255097   -0.000282
  28 H :    0.142497    0.000051
  29 H :    0.142570    0.000052
  30 C :   -0.509719   -0.000099
  31 H :    0.157182    0.000028
  32 H :    0.157398    0.000027
  33 C :   -0.544197   -0.047098
  34 H :    0.181499    0.001936
  35 H :    0.149914    0.000283
  36 H :    0.144123   -0.000006
Sum of atomic charges         :   -0.0000000

LOEWDIN ATOMIC CHARGES AND SPIN POPULATIONS
-------------------------------------------
   0 C :   -0.030334    0.013262
   1 C :   -0.045165    0.181069
   2 C :   -0.091463   -0.069568
   3 C :    0.008933    0.175799
   4 C :   -0.081619   -0.058260
   5 C :   -0.035669    0.193450
   6 C :   -0.039369   -0.065870
   7 H :    0.061174    0.000299
   8 H :    0.058062   -0.000579
   9 C :   -0.032887    0.621866
  10 H :    0.036688    0.004498
  11 H :    0.038731    0.003458
  12 C :   -0.060971    0.000871
  13 H :    0.051732    0.001463
  14 H :    0.051481    0.003476
  15 C :   -0.083371    0.009835
  16 H :    0.046756    0.000204
  17 H :    0.046513    0.000211
  18 C :   -0.084116    0.000875
  19 H :    0.036394    0.000013
  20 H :    0.036487    0.000139
  21 C :   -0.049179    0.001920
  22 H :    0.062838    0.009415
  23 H :    0.062958    0.009574
  24 C :   -0.085661    0.000212
  25 H :    0.046243    0.000026
  26 H :    0.046255    0.000023
  27 C :   -0.095807    0.000007
  28 H :    0.043751    0.000067
  29 H :    0.043790    0.000070
  30 C :   -0.085335   -0.000037
  31 H :    0.036066    0.000019
  32 H :    0.036203    0.000018
  33 C :   -0.067391   -0.037879
  34 H :    0.048242   -0.000186
  35 H :    0.035061    0.000249
  36 H :    0.033978   -0.000006

  Mayer bond orders larger than 0.100000
B(  0-C ,  4-C ) :   0.9232 B(  0-C , 33-C ) :   2.7113 B(  1-C ,  2-C ) :   1.3735
B(  1-C ,  5-C ) :   0.1157 B(  1-C ,  6-C ) :   1.5067 B(  1-C ,  9-C ) :   0.1144
B(  1-C , 12-C ) :   0.8164 B(  2-C ,  3-C ) :   1.2544 B(  2-C ,  4-C ) :   0.1182
B(  2-C ,  6-C ) :   0.1428 B(  2-C ,  9-C ) :   1.0963 B(  3-C ,  4-C ) :   1.4736
B(  3-C ,  7-H ) :   0.9833 B(  3-C ,  9-C ) :   0.1415 B(  4-C ,  5-C ) :   1.3381
B(  5-C ,  6-C ) :   1.4112 B(  5-C , 21-C ) :   0.9408 B(  6-C ,  8-H ) :   0.9792
B(  9-C , 10-H ) :   0.9644 B(  9-C , 11-H ) :   0.9821 B( 12-C , 13-H ) :   0.9915
B( 12-C , 14-H ) :   0.9717 B( 12-C , 15-C ) :   0.9775 B( 15-C , 16-H ) :   0.9710
B( 15-C , 17-H ) :   0.9737 B( 15-C , 18-C ) :   0.9520 B( 18-C , 19-H ) :   0.9729
B( 18-C , 20-H ) :   0.9725 B( 18-C , 35-H ) :   0.9710 B( 21-C , 22-H ) :   0.9581
B( 21-C , 23-H ) :   0.9579 B( 21-C , 24-C ) :   1.0199 B( 24-C , 25-H ) :   0.9605
B( 24-C , 26-H ) :   0.9615 B( 24-C , 27-C ) :   0.9874 B( 27-C , 28-H ) :   0.9708
B( 27-C , 29-H ) :   0.9713 B( 27-C , 30-C ) :   0.9537 B( 30-C , 31-H ) :   0.9731
B( 30-C , 32-H ) :   0.9730 B( 30-C , 36-H ) :   0.9676 B( 33-C , 34-H ) :   0.9823

FINAL SINGLE POINT ENERGY      -621.920320509592

DIPOLE MOMENT
-------------
                                X             Y             Z
Electronic contribution:    -11.67640      14.75296      -1.68187
Nuclear contribution   :     11.95169     -15.07875       1.72848
                        -----------------------------------------
Total Dipole Moment    :      0.27529      -0.32578       0.04662
                        -----------------------------------------
Magnitude (a.u.)       :      0.42906
Magnitude (Debye)      :      1.09057

Rotational constants in cm-1:     0.018509     0.010263     0.006806
Rotational constants in MHz :   554.888538   307.670825   204.032667

CHEMICAL SHIELDING SUMMARY (ppm)  --  Orbital contribution
----------------------------------------------------------

  Nucleus  Element    Isotropic     Anisotropy
  -------  -------  ------------   ------------
      7       H            5.472         35.034
      8       H           79.101         30.237
     10       H            3.863         13.548
     11       H          -14.870          4.279
     13       H           63.006         14.168
     14       H           23.473         35.799
     16       H           40.795         22.082
     17       H           80.562          7.695
     19       H           -7.584         22.607
     20       H           26.833         10.824
     22       H           54.959         38.834
     23       H           47.763         40.253
     25       H           75.630         13.501
     26       H           82.687          8.816
     28       H           26.736         20.576
     29       H           20.596         21.055
     31       H           35.622         10.040
     32       H           30.226         12.567
     34       H          -61.445        -20.764
     35       H          -19.881         26.804
     36       H          -48.292         14.946

                             ****ORCA TERMINATED NORMALLY****
TOTAL RUN TIME: 0 days 0 hours 27 minutes 42 seconds 462 msec
