                         Program Version 4.2.1 -  RELEASE  -
|  1> ! B3LYP cc-pVDZ OPT
|  2> %pal nprocs 16 end
|  3> *XYZFile 0 2 Ashift.xyz
|  4>
|  5>                          ****END OF INPUT****
 Total Charge           Charge          ....    0
 Multiplicity           Mult            ....    2
 Number of Electrons    NEL             ....  117
FINAL SINGLE POINT ENERGY      -621.766564254747
FINAL SINGLE POINT ENERGY      -621.798197319233
FINAL SINGLE POINT ENERGY      -621.815067201268
FINAL SINGLE POINT ENERGY      -621.822784005011
FINAL SINGLE POINT ENERGY      -621.825593483401
FINAL SINGLE POINT ENERGY      -621.826796441690
FINAL SINGLE POINT ENERGY      -621.827711257238
FINAL SINGLE POINT ENERGY      -621.828653756635
FINAL SINGLE POINT ENERGY      -621.829746753927
FINAL SINGLE POINT ENERGY      -621.830970432998
FINAL SINGLE POINT ENERGY      -621.852933912214
FINAL SINGLE POINT ENERGY      -621.854530473166
FINAL SINGLE POINT ENERGY      -621.855835909541
FINAL SINGLE POINT ENERGY      -621.856702931422
FINAL SINGLE POINT ENERGY      -621.857173151713
FINAL SINGLE POINT ENERGY      -621.857274324693
FINAL SINGLE POINT ENERGY      -621.857363300865
FINAL SINGLE POINT ENERGY      -621.857370600498
FINAL SINGLE POINT ENERGY      -621.857374438115
                    ***********************HURRAY********************

CARTESIAN COORDINATES (ANGSTROEM)
---------------------------------
  C     -2.629810    0.131627    0.162858
  C      1.575037   -0.216712   -0.510283
  C      0.963312    1.084335   -0.474588
  C     -0.443109    1.138937   -0.246461
  C     -1.220090   -0.004870   -0.065413
  C     -0.611482   -1.294297   -0.109269
  C      0.773237   -1.346173   -0.331260
  H     -0.931590    2.115353   -0.214935
  H      1.261625   -2.321838   -0.371309
  C      1.680391    2.283916   -0.657338
  H      2.751074    2.300061   -0.855192
  H      1.160107    3.242687   -0.621812
  C      3.065124   -0.387397   -0.702152
  H      3.260826   -1.402495   -1.088894
  H      3.434851    0.309876   -1.474304
  C      3.883125   -0.186945    0.590812
  H      3.684707    0.820809    0.995880
  H      3.520635   -0.898464    1.353970
  C      5.386267   -0.374945    0.375837
  H      5.780551    0.345274   -0.361788
  H      5.614618   -1.387734    0.000718
  C     -1.464926   -2.531794    0.074762
  H     -2.011807   -2.435387    1.031422
  H     -2.260385   -2.520141   -0.694845
  C     -0.748697   -3.884273    0.038120
  H     -0.216378   -4.002580   -0.923856
  H      0.026896   -3.920157    0.825892
  C     -1.709325   -5.064954    0.224713
  H     -2.249194   -4.946276    1.182636
  H     -2.483484   -5.031489   -0.564691
  C     -1.006992   -6.424449    0.197118
  H     -0.252756   -6.502888    0.999495
  H     -0.485018   -6.586611   -0.761904
  C     -3.823237    0.254311    0.360312
  H     -4.874141    0.369781    0.540099
  H      5.947470   -0.233864    1.313763
  H     -1.722967   -7.251389    0.330784

 Multiplicity           Mult            ....    2
 Number of Electrons    NEL             ....  117
 Basis Dimension        Dim             ....  329

ORBITAL ENERGIES
----------------
                 SPIN UP ORBITALS
  NO   OCC          E(Eh)            E(eV)
   0   1.0000     -10.206154      -277.7236
   1   1.0000     -10.200971      -277.5825
   2   1.0000     -10.196924      -277.4724
   3   1.0000     -10.195026      -277.4208
   4   1.0000     -10.192749      -277.3588
   5   1.0000     -10.189952      -277.2827
   6   1.0000     -10.188448      -277.2418
   7   1.0000     -10.186267      -277.1824
   8   1.0000     -10.185561      -277.1632
   9   1.0000     -10.183979      -277.1201
  10   1.0000     -10.182534      -277.0808
  11   1.0000     -10.182397      -277.0771
  12   1.0000     -10.181823      -277.0615
  13   1.0000     -10.181652      -277.0568
  14   1.0000     -10.177605      -276.9467
  15   1.0000     -10.175940      -276.9014
  16   1.0000      -0.869083       -23.6489
  17   1.0000      -0.814454       -22.1624
  18   1.0000      -0.797127       -21.6909
  19   1.0000      -0.776569       -21.1315
  20   1.0000      -0.764109       -20.7925
  21   1.0000      -0.731985       -19.9183
  22   1.0000      -0.723704       -19.6930
  23   1.0000      -0.684573       -18.6282
  24   1.0000      -0.669491       -18.2178
  25   1.0000      -0.624295       -16.9879
  26   1.0000      -0.611197       -16.6315
  27   1.0000      -0.591224       -16.0880
  28   1.0000      -0.576298       -15.6819
  29   1.0000      -0.564775       -15.3683
  30   1.0000      -0.524687       -14.2775
  31   1.0000      -0.492834       -13.4107
  32   1.0000      -0.489532       -13.3208
  33   1.0000      -0.470417       -12.8007
  34   1.0000      -0.457446       -12.4477
  35   1.0000      -0.447693       -12.1823
  36   1.0000      -0.427930       -11.6446
  37   1.0000      -0.421834       -11.4787
  38   1.0000      -0.421072       -11.4580
  39   1.0000      -0.418229       -11.3806
  40   1.0000      -0.411422       -11.1954
  41   1.0000      -0.399810       -10.8794
  42   1.0000      -0.387010       -10.5311
  43   1.0000      -0.379685       -10.3317
  44   1.0000      -0.374487       -10.1903
  45   1.0000      -0.367261        -9.9937
  46   1.0000      -0.351869        -9.5748
  47   1.0000      -0.350774        -9.5450
  48   1.0000      -0.339301        -9.2328
  49   1.0000      -0.335229        -9.1220
  50   1.0000      -0.328417        -8.9367
  51   1.0000      -0.323346        -8.7987
  52   1.0000      -0.322584        -8.7780
  53   1.0000      -0.321244        -8.7415
  54   1.0000      -0.305858        -8.3228
  55   1.0000      -0.275768        -7.5040
  56   1.0000      -0.271940        -7.3999
  57   1.0000      -0.232976        -6.3396
  58   1.0000      -0.177572        -4.8320
  59   0.0000      -0.030422        -0.8278
  60   0.0000       0.011674         0.3177
  61   0.0000       0.047326         1.2878
  62   0.0000       0.058860         1.6017
  63   0.0000       0.062058         1.6887

                 SPIN DOWN ORBITALS
  NO   OCC          E(Eh)            E(eV)
   0   1.0000     -10.207797      -277.7683
   1   1.0000     -10.197552      -277.4895
   2   1.0000     -10.197154      -277.4787
   3   1.0000     -10.193289      -277.3735
   4   1.0000     -10.189378      -277.2671
   5   1.0000     -10.188041      -277.2307
   6   1.0000     -10.186503      -277.1888
   7   1.0000     -10.185786      -277.1693
   8   1.0000     -10.184187      -277.1258
   9   1.0000     -10.183704      -277.1127
  10   1.0000     -10.183028      -277.0943
  11   1.0000     -10.181821      -277.0614
  12   1.0000     -10.181651      -277.0568
  13   1.0000     -10.179847      -277.0077
  14   1.0000     -10.177591      -276.9463
  15   1.0000     -10.175941      -276.9014
  16   1.0000      -0.865361       -23.5477
  17   1.0000      -0.811316       -22.0770
  18   1.0000      -0.796247       -21.6670
  19   1.0000      -0.773204       -21.0400
  20   1.0000      -0.762632       -20.7523
  21   1.0000      -0.729750       -19.8575
  22   1.0000      -0.720325       -19.6010
  23   1.0000      -0.682297       -18.5662
  24   1.0000      -0.662249       -18.0207
  25   1.0000      -0.617863       -16.8129
  26   1.0000      -0.608652       -16.5623
  27   1.0000      -0.589524       -16.0418
  28   1.0000      -0.575403       -15.6575
  29   1.0000      -0.563256       -15.3270
  30   1.0000      -0.522740       -14.2245
  31   1.0000      -0.491289       -13.3686
  32   1.0000      -0.487632       -13.2691
  33   1.0000      -0.469516       -12.7762
  34   1.0000      -0.455323       -12.3900
  35   1.0000      -0.447110       -12.1665
  36   1.0000      -0.426482       -11.6052
  37   1.0000      -0.420061       -11.4305
  38   1.0000      -0.418632       -11.3916
  39   1.0000      -0.416181       -11.3249
  40   1.0000      -0.409445       -11.1416
  41   1.0000      -0.396520       -10.7899
  42   1.0000      -0.384165       -10.4537
  43   1.0000      -0.377221       -10.2647
  44   1.0000      -0.371811       -10.1175
  45   1.0000      -0.366002        -9.9594
  46   1.0000      -0.350810        -9.5460
  47   1.0000      -0.347566        -9.4578
  48   1.0000      -0.337807        -9.1922
  49   1.0000      -0.334561        -9.1039
  50   1.0000      -0.327809        -8.9201
  51   1.0000      -0.322554        -8.7771
  52   1.0000      -0.321780        -8.7561
  53   1.0000      -0.320305        -8.7159
  54   1.0000      -0.301213        -8.1964
  55   1.0000      -0.271869        -7.3979
  56   1.0000      -0.257883        -7.0174
  57   1.0000      -0.224852        -6.1185
  58   0.0000      -0.081124        -2.2075
  59   0.0000      -0.019904        -0.5416
  60   0.0000       0.028389         0.7725
  61   0.0000       0.047850         1.3021
  62   0.0000       0.059695         1.6244

MULLIKEN ATOMIC CHARGES AND SPIN POPULATIONS
--------------------------------------------
   0 C :    0.608766    0.029719
   1 C :   -0.066544    0.245440
   2 C :   -0.043828   -0.170839
   3 C :    0.024142    0.227474
   4 C :   -0.049196   -0.112426
   5 C :   -0.072497    0.261900
   6 C :    0.034659   -0.125688
   7 H :   -0.051578   -0.009564
   8 H :   -0.061783    0.004575
   9 C :    0.038867    0.749126
  10 H :    0.014354   -0.029860
  11 H :    0.007120   -0.029526
  12 C :    0.053162   -0.018240
  13 H :   -0.003293    0.002445
  14 H :    0.009672    0.006714
  15 C :   -0.031991    0.011923
  16 H :    0.010992   -0.000682
  17 H :    0.008583   -0.000270
  18 C :   -0.000621    0.001061
  19 H :    0.016350   -0.000028
  20 H :    0.014195    0.000230
  21 C :    0.042433   -0.020717
  22 H :    0.031008    0.011021
  23 H :    0.034731    0.011533
  24 C :   -0.037507    0.000977
  25 H :    0.013984    0.000197
  26 H :    0.016359    0.000224
  27 C :   -0.025836    0.000028
  28 H :    0.003920    0.000063
  29 H :    0.009114    0.000063
  30 C :    0.003553   -0.000089
  31 H :    0.017218    0.000027
  32 H :    0.015233    0.000025
  33 C :   -0.583264   -0.049116
  34 H :   -0.028572    0.001961
  35 H :    0.014586    0.000327
  36 H :    0.013508   -0.000006
Sum of atomic charges         :   -0.0000000

LOEWDIN ATOMIC CHARGES AND SPIN POPULATIONS
-------------------------------------------
   0 C :   -0.001633    0.013956
   1 C :   -0.000339    0.181931
   2 C :   -0.054333   -0.072213
   3 C :    0.017625    0.176631
   4 C :   -0.063713   -0.059270
   5 C :    0.000713    0.194293
   6 C :   -0.032636   -0.066609
   7 H :    0.029331    0.000019
   8 H :    0.023935   -0.000537
   9 C :   -0.018988    0.625624
  10 H :    0.016261    0.003625
  11 H :    0.018982    0.002381
  12 C :   -0.032502    0.000368
  13 H :    0.028465    0.001592
  14 H :    0.027769    0.004249
  15 C :   -0.043911    0.009903
  16 H :    0.024461    0.000485
  17 H :    0.025326    0.000199
  18 C :   -0.067324    0.000963
  19 H :    0.024902    0.000022
  20 H :    0.024697    0.000162
  21 C :   -0.036204    0.002518
  22 H :    0.039788    0.008652
  23 H :    0.040583    0.009084
  24 C :   -0.044245    0.000182
  25 H :    0.023283    0.000072
  26 H :    0.024025    0.000077
  27 C :   -0.047376    0.000022
  28 H :    0.023870    0.000099
  29 H :    0.024856    0.000105
  30 C :   -0.067836   -0.000043
  31 H :    0.025035    0.000019
  32 H :    0.024680    0.000017
  33 C :   -0.055478   -0.038783
  34 H :    0.021793   -0.000069
  35 H :    0.028402    0.000283
  36 H :    0.027736   -0.000008

  Mayer bond orders larger than 0.100000
B(  0-C ,  4-C ) :   0.8992 B(  0-C , 33-C ) :   2.1662 B(  1-C ,  2-C ) :   1.2767
B(  1-C ,  6-C ) :   1.4250 B(  1-C , 12-C ) :   1.1110 B(  2-C ,  3-C ) :   1.2648
B(  2-C ,  9-C ) :   1.5072 B(  3-C ,  4-C ) :   1.4575 B(  3-C ,  7-H ) :   0.9268
B(  4-C ,  5-C ) :   1.3535 B(  5-C ,  6-C ) :   1.3827 B(  5-C , 21-C ) :   1.0938
B(  6-C ,  8-H ) :   0.9150 B(  9-C , 10-H ) :   0.9072 B(  9-C , 11-H ) :   0.9134
B( 12-C , 13-H ) :   0.9106 B( 12-C , 14-H ) :   0.9064 B( 12-C , 15-C ) :   1.0588
B( 15-C , 16-H ) :   0.9440 B( 15-C , 17-H ) :   0.9439 B( 15-C , 18-C ) :   1.1011
B( 18-C , 19-H ) :   0.9666 B( 18-C , 20-H ) :   0.9672 B( 18-C , 35-H ) :   0.9641
B( 21-C , 22-H ) :   0.8960 B( 21-C , 23-H ) :   0.8976 B( 21-C , 24-C ) :   1.1008
B( 24-C , 25-H ) :   0.9285 B( 24-C , 26-H ) :   0.9301 B( 24-C , 27-C ) :   1.0767
B( 27-C , 28-H ) :   0.9408 B( 27-C , 29-H ) :   0.9415 B( 27-C , 30-C ) :   1.1055
B( 30-C , 31-H ) :   0.9663 B( 30-C , 32-H ) :   0.9661 B( 30-C , 36-H ) :   0.9620
B( 33-C , 34-H ) :   1.1113

FINAL SINGLE POINT ENERGY      -621.857375019734

DIPOLE MOMENT
-------------
                                X             Y             Z
Electronic contribution:    -11.72654      14.81730      -1.70327
Nuclear contribution   :     11.94984     -15.09026       1.73111
                        -----------------------------------------
Total Dipole Moment    :      0.22329      -0.27296       0.02784
                        -----------------------------------------
Magnitude (a.u.)       :      0.35375
Magnitude (Debye)      :      0.89917

Rotational constants in cm-1:     0.018485     0.010277     0.006812
Rotational constants in MHz :   554.171046   308.094263   204.210152

                             ****ORCA TERMINATED NORMALLY****
TOTAL RUN TIME: 0 days 0 hours 32 minutes 10 seconds 437 msec
