                         Program Version 5.0.4 -  RELEASE  -
|  1> ! B3LYP cc-pVDZ OPT
|  2> %pal nprocs 16 end
|  3> *XYZFile 0 2 model.xyz
|  4>
|  5>                          ****END OF INPUT****
 Total Charge           Charge          ....    0
 Multiplicity           Mult            ....    2
 Number of Electrons    NEL             ....  117
FINAL SINGLE POINT ENERGY      -621.857973012087
FINAL SINGLE POINT ENERGY      -621.857977959253
                    ***********************HURRAY********************

CARTESIAN COORDINATES (ANGSTROEM)
---------------------------------
  C     -2.631597    0.129889    0.152946
  C      1.575864   -0.218018   -0.504992
  C      0.963822    1.083546   -0.471921
  C     -0.443340    1.138551   -0.248119
  C     -1.220279   -0.005180   -0.065902
  C     -0.611010   -1.294596   -0.103795
  C      0.773999   -1.347005   -0.323995
  H     -0.932113    2.114973   -0.219804
  H      1.262338   -2.323049   -0.360688
  C      1.682287    2.282286   -0.654363
  H      2.755459    2.297223   -0.838416
  H      1.162943    3.241730   -0.622224
  C      3.065834   -0.388546   -0.698656
  H      3.262023   -1.404533   -1.082470
  H      3.432977    0.306369   -1.474054
  C      3.887515   -0.182955    0.591465
  H      3.688811    0.825725    0.993912
  H      3.528649   -0.892624    1.358202
  C      5.390342   -0.369448    0.371431
  H      5.781137    0.351469   -0.367554
  H      5.618742   -1.381978   -0.004350
  C     -1.464202   -2.531527    0.084086
  H     -2.003034   -2.436934    1.045488
  H     -2.265137   -2.516675   -0.678829
  C     -0.750622   -3.885261    0.036886
  H     -0.229468   -4.002281   -0.931186
  H      0.033199   -3.924469    0.815700
  C     -1.711359   -5.064693    0.232430
  H     -2.238010   -4.948281    1.197733
  H     -2.495639   -5.026358   -0.546048
  C     -1.012747   -6.426102    0.189580
  H     -0.246895   -6.508811    0.980041
  H     -0.505961   -6.586065   -0.777902
  C     -3.826626    0.249482    0.342032
  H     -4.879280    0.361416    0.513224
  H      5.954180   -0.226136    1.307646
  H     -1.728336   -7.252292    0.331363

 Multiplicity           Mult            ....    2
 Number of Electrons    NEL             ....  117
 Basis Dimension        Dim             ....  329

ORBITAL ENERGIES
----------------
                 SPIN UP ORBITALS
  NO   OCC          E(Eh)            E(eV)
   0   1.0000     -10.206366      -277.7293
   1   1.0000     -10.201067      -277.5852
   2   1.0000     -10.197166      -277.4790
   3   1.0000     -10.195339      -277.4293
   4   1.0000     -10.192891      -277.3627
   5   1.0000     -10.189976      -277.2833
   6   1.0000     -10.188492      -277.2430
   7   1.0000     -10.186236      -277.1816
   8   1.0000     -10.185441      -277.1599
   9   1.0000     -10.184196      -277.1261
  10   1.0000     -10.182712      -277.0857
  11   1.0000     -10.182384      -277.0768
  12   1.0000     -10.181699      -277.0581
  13   1.0000     -10.181513      -277.0531
  14   1.0000     -10.177801      -276.9520
  15   1.0000     -10.175907      -276.9005
  16   1.0000      -0.869094       -23.6493
  17   1.0000      -0.814419       -22.1615
  18   1.0000      -0.797033       -21.6884
  19   1.0000      -0.776521       -21.1302
  20   1.0000      -0.764103       -20.7923
  21   1.0000      -0.731956       -19.9175
  22   1.0000      -0.723694       -19.6927
  23   1.0000      -0.684533       -18.6271
  24   1.0000      -0.669486       -18.2176
  25   1.0000      -0.624258       -16.9869
  26   1.0000      -0.611207       -16.6318
  27   1.0000      -0.591187       -16.0870
  28   1.0000      -0.576245       -15.6804
  29   1.0000      -0.564739       -15.3673
  30   1.0000      -0.524708       -14.2780
  31   1.0000      -0.492856       -13.4113
  32   1.0000      -0.489563       -13.3217
  33   1.0000      -0.470230       -12.7956
  34   1.0000      -0.457462       -12.4482
  35   1.0000      -0.447709       -12.1828
  36   1.0000      -0.427974       -11.6458
  37   1.0000      -0.421699       -11.4750
  38   1.0000      -0.421055       -11.4575
  39   1.0000      -0.418220       -11.3803
  40   1.0000      -0.411337       -11.1931
  41   1.0000      -0.399755       -10.8779
  42   1.0000      -0.387028       -10.5316
  43   1.0000      -0.379790       -10.3346
  44   1.0000      -0.374490       -10.1904
  45   1.0000      -0.367098        -9.9893
  46   1.0000      -0.351882        -9.5752
  47   1.0000      -0.350833        -9.5467
  48   1.0000      -0.339311        -9.2331
  49   1.0000      -0.335093        -9.1183
  50   1.0000      -0.328374        -8.9355
  51   1.0000      -0.323375        -8.7995
  52   1.0000      -0.322506        -8.7758
  53   1.0000      -0.321115        -8.7380
  54   1.0000      -0.305908        -8.3242
  55   1.0000      -0.275872        -7.5068
  56   1.0000      -0.272007        -7.4017
  57   1.0000      -0.233071        -6.3422
  58   1.0000      -0.177598        -4.8327
  59   0.0000      -0.030421        -0.8278
  60   0.0000       0.011701         0.3184
  61   0.0000       0.047290         1.2868
  62   0.0000       0.058627         1.5953
  63   0.0000       0.063066         1.7161

                 SPIN DOWN ORBITALS
  NO   OCC          E(Eh)            E(eV)
   0   1.0000     -10.208009      -277.7740
   1   1.0000     -10.197863      -277.4980
   2   1.0000     -10.197248      -277.4812
   3   1.0000     -10.193535      -277.3802
   4   1.0000     -10.189515      -277.2708
   5   1.0000     -10.188084      -277.2319
   6   1.0000     -10.186472      -277.1880
   7   1.0000     -10.185666      -277.1661
   8   1.0000     -10.184366      -277.1307
   9   1.0000     -10.183922      -277.1186
  10   1.0000     -10.183016      -277.0939
  11   1.0000     -10.181696      -277.0580
  12   1.0000     -10.181513      -277.0530
  13   1.0000     -10.179889      -277.0089
  14   1.0000     -10.177787      -276.9517
  15   1.0000     -10.175909      -276.9006
  16   1.0000      -0.865367       -23.5478
  17   1.0000      -0.811269       -22.0757
  18   1.0000      -0.796148       -21.6643
  19   1.0000      -0.773172       -21.0391
  20   1.0000      -0.762612       -20.7517
  21   1.0000      -0.729736       -19.8571
  22   1.0000      -0.720290       -19.6001
  23   1.0000      -0.682247       -18.5649
  24   1.0000      -0.662255       -18.0209
  25   1.0000      -0.617853       -16.8126
  26   1.0000      -0.608654       -16.5623
  27   1.0000      -0.589479       -16.0405
  28   1.0000      -0.575350       -15.6561
  29   1.0000      -0.563222       -15.3260
  30   1.0000      -0.522764       -14.2251
  31   1.0000      -0.491316       -13.3694
  32   1.0000      -0.487653       -13.2697
  33   1.0000      -0.469322       -12.7709
  34   1.0000      -0.455332       -12.3902
  35   1.0000      -0.447127       -12.1669
  36   1.0000      -0.426537       -11.6067
  37   1.0000      -0.419897       -11.4260
  38   1.0000      -0.418619       -11.3912
  39   1.0000      -0.416168       -11.3245
  40   1.0000      -0.409348       -11.1389
  41   1.0000      -0.396464       -10.7883
  42   1.0000      -0.384157       -10.4534
  43   1.0000      -0.377306       -10.2670
  44   1.0000      -0.371841       -10.1183
  45   1.0000      -0.365858        -9.9555
  46   1.0000      -0.350817        -9.5462
  47   1.0000      -0.347631        -9.4595
  48   1.0000      -0.337816        -9.1924
  49   1.0000      -0.334413        -9.0999
  50   1.0000      -0.327766        -8.9190
  51   1.0000      -0.322560        -8.7773
  52   1.0000      -0.321717        -8.7544
  53   1.0000      -0.320196        -8.7130
  54   1.0000      -0.301264        -8.1978
  55   1.0000      -0.271928        -7.3995
  56   1.0000      -0.257988        -7.0202
  57   1.0000      -0.224931        -6.1207
  58   0.0000      -0.081194        -2.2094
  59   0.0000      -0.019882        -0.5410
  60   0.0000       0.028461         0.7745
  61   0.0000       0.047826         1.3014
  62   0.0000       0.059563         1.6208

MULLIKEN ATOMIC CHARGES AND SPIN POPULATIONS
--------------------------------------------
   0 C :    0.619023    0.029801
   1 C :   -0.062026    0.245907
   2 C :   -0.046663   -0.170951
   3 C :    0.025294    0.228051
   4 C :   -0.047473   -0.112721
   5 C :   -0.073339    0.262702
   6 C :    0.031278   -0.125996
   7 H :   -0.052395   -0.009565
   8 H :   -0.063312    0.004572
   9 C :    0.043108    0.748274
  10 H :    0.011539   -0.030041
  11 H :    0.007561   -0.029520
  12 C :    0.052387   -0.018359
  13 H :   -0.001071    0.002446
  14 H :    0.008076    0.006874
  15 C :   -0.028832    0.011839
  16 H :    0.011709   -0.000704
  17 H :    0.006892   -0.000240
  18 C :   -0.005670    0.001079
  19 H :    0.016234   -0.000032
  20 H :    0.016651    0.000228
  21 C :    0.044608   -0.020773
  22 H :    0.031607    0.011189
  23 H :    0.031813    0.011411
  24 C :   -0.035700    0.000966
  25 H :    0.015141    0.000212
  26 H :    0.014209    0.000215
  27 C :   -0.023779    0.000023
  28 H :    0.005797    0.000059
  29 H :    0.006090    0.000060
  30 C :    0.003911   -0.000090
  31 H :    0.016032    0.000027
  32 H :    0.016255    0.000025
  33 C :   -0.592147   -0.049249
  34 H :   -0.031122    0.001966
  35 H :    0.015452    0.000321
  36 H :    0.012863   -0.000006
Sum of atomic charges         :   -0.0000000

LOEWDIN ATOMIC CHARGES AND SPIN POPULATIONS
-------------------------------------------
   0 C :   -0.001389    0.013995
   1 C :   -0.000560    0.182180
   2 C :   -0.054657   -0.072376
   3 C :    0.017790    0.177048
   4 C :   -0.063778   -0.059385
   5 C :    0.000619    0.194848
   6 C :   -0.032282   -0.066705
   7 H :    0.029299    0.000011
   8 H :    0.023692   -0.000530
   9 C :   -0.018580    0.624880
  10 H :    0.015922    0.003571
  11 H :    0.019188    0.002336
  12 C :   -0.032702    0.000350
  13 H :    0.028841    0.001593
  14 H :    0.027656    0.004316
  15 C :   -0.043638    0.009880
  16 H :    0.024547    0.000451
  17 H :    0.025097    0.000207
  18 C :   -0.068294    0.000967
  19 H :    0.024982    0.000022
  20 H :    0.025103    0.000161
  21 C :   -0.035628    0.002524
  22 H :    0.039872    0.008794
  23 H :    0.039952    0.008985
  24 C :   -0.043847    0.000175
  25 H :    0.023565    0.000075
  26 H :    0.023415    0.000076
  27 C :   -0.046904    0.000018
  28 H :    0.024186    0.000098
  29 H :    0.024283    0.000102
  30 C :   -0.067687   -0.000043
  31 H :    0.024774    0.000018
  32 H :    0.024865    0.000017
  33 C :   -0.055545   -0.038863
  34 H :    0.021712   -0.000068
  35 H :    0.028587    0.000280
  36 H :    0.027543   -0.000008

  Mayer bond orders larger than 0.100000
B(  0-C ,  4-C ) :   0.8971 B(  0-C , 33-C ) :   2.1447 B(  1-C ,  2-C ) :   1.2752
B(  1-C ,  6-C ) :   1.4275 B(  1-C , 12-C ) :   1.1090 B(  2-C ,  3-C ) :   1.2638
B(  2-C ,  9-C ) :   1.5112 B(  3-C ,  4-C ) :   1.4584 B(  3-C ,  7-H ) :   0.9257
B(  4-C ,  5-C ) :   1.3540 B(  5-C ,  6-C ) :   1.3831 B(  5-C , 21-C ) :   1.0934
B(  6-C ,  8-H ) :   0.9132 B(  9-C , 10-H ) :   0.9055 B(  9-C , 11-H ) :   0.9119
B( 12-C , 13-H ) :   0.9113 B( 12-C , 14-H ) :   0.9047 B( 12-C , 15-C ) :   1.0597
B( 15-C , 16-H ) :   0.9440 B( 15-C , 17-H ) :   0.9435 B( 15-C , 18-C ) :   1.1014
B( 18-C , 19-H ) :   0.9664 B( 18-C , 20-H ) :   0.9668 B( 18-C , 35-H ) :   0.9640
B( 21-C , 22-H ) :   0.8962 B( 21-C , 23-H ) :   0.8968 B( 21-C , 24-C ) :   1.1022
B( 24-C , 25-H ) :   0.9289 B( 24-C , 26-H ) :   0.9297 B( 24-C , 27-C ) :   1.0757
B( 27-C , 28-H ) :   0.9410 B( 27-C , 29-H ) :   0.9411 B( 27-C , 30-C ) :   1.1059
B( 30-C , 31-H ) :   0.9662 B( 30-C , 32-H ) :   0.9662 B( 30-C , 36-H ) :   0.9618
B( 33-C , 34-H ) :   1.1167

FINAL SINGLE POINT ENERGY      -621.857979213412

DIPOLE MOMENT
-------------
                                X             Y             Z
Electronic contribution:    -11.73261      14.80532      -1.69653
Nuclear contribution   :     11.95169     -15.07875       1.72848
                        -----------------------------------------
Total Dipole Moment    :      0.21908      -0.27343       0.03196
                        -----------------------------------------
Magnitude (a.u.)       :      0.35182
Magnitude (Debye)      :      0.89426

Rotational constants in cm-1:     0.018509     0.010263     0.006806
Rotational constants in MHz :   554.888538   307.670825   204.032667

                             ****ORCA TERMINATED NORMALLY****
TOTAL RUN TIME: 0 days 0 hours 3 minutes 22 seconds 372 msec
