                         Program Version 5.0.4 -  RELEASE  -
|  1> ! B3LYP EPR-II OPT
|  2> %pal nprocs 16 end
|  3> *XYZFile 0 2 model.xyz
|  4>
|  5>                          ****END OF INPUT****
 Total Charge           Charge          ....    0
 Multiplicity           Mult            ....    2
 Number of Electrons    NEL             ....  117
FINAL SINGLE POINT ENERGY      -621.920810533962
FINAL SINGLE POINT ENERGY      -621.921674416994
FINAL SINGLE POINT ENERGY      -621.921717342491
FINAL SINGLE POINT ENERGY      -621.921729694698
FINAL SINGLE POINT ENERGY      -621.921730765975
FINAL SINGLE POINT ENERGY      -621.921730621593
                    ***********************HURRAY********************

CARTESIAN COORDINATES (ANGSTROEM)
---------------------------------
  C     -2.631135    0.136092    0.158159
  C      1.583587   -0.229531   -0.498372
  C      0.972297    1.076577   -0.473269
  C     -0.437261    1.141039   -0.247916
  C     -1.217519   -0.004302   -0.061469
  C     -0.612770   -1.298720   -0.094607
  C      0.776447   -1.359051   -0.313969
  H     -0.919968    2.114043   -0.224749
  H      1.255317   -2.333399   -0.347294
  C      1.697853    2.276431   -0.666396
  H      2.764407    2.285724   -0.852533
  H      1.186985    3.233503   -0.643844
  C      3.076798   -0.402684   -0.692801
  H      3.274958   -1.422277   -1.045016
  H      3.439862    0.272421   -1.477924
  C      3.899103   -0.160579    0.597832
  H      3.687597    0.844664    0.979705
  H      3.558833   -0.862551    1.368882
  C      5.411564   -0.325853    0.372393
  H      5.780492    0.389290   -0.371628
  H      5.649364   -1.332684    0.010611
  C     -1.475199   -2.534705    0.096262
  H     -1.995412   -2.445171    1.060021
  H     -2.273793   -2.514645   -0.658143
  C     -0.761575   -3.894277    0.034737
  H     -0.255166   -4.007361   -0.933226
  H      0.019091   -3.943050    0.805682
  C     -1.732454   -5.072973    0.230701
  H     -2.242415   -4.963898    1.197030
  H     -2.514907   -5.026961   -0.538306
  C     -1.035667   -6.443315    0.170759
  H     -0.269788   -6.530091    0.949819
  H     -0.543315   -6.592334   -0.796918
  C     -3.831534    0.245077    0.347930
  H     -4.879254    0.347224    0.514955
  H      5.969680   -0.162328    1.300027
  H     -1.750638   -7.260504    0.311773

 Multiplicity           Mult            ....    2
 Number of Electrons    NEL             ....  117
 Basis Dimension        Dim             ....  419

ORBITAL ENERGIES
----------------
                 SPIN UP ORBITALS
  NO   OCC          E(Eh)            E(eV)
   0   1.0000     -10.217727      -278.0385
   1   1.0000     -10.211358      -277.8652
   2   1.0000     -10.207333      -277.7557
   3   1.0000     -10.206780      -277.7406
   4   1.0000     -10.203580      -277.6535
   5   1.0000     -10.200679      -277.5746
   6   1.0000     -10.193266      -277.3729
   7   1.0000     -10.192234      -277.3448
   8   1.0000     -10.190123      -277.2873
   9   1.0000     -10.187080      -277.2045
  10   1.0000     -10.185680      -277.1664
  11   1.0000     -10.184146      -277.1247
  12   1.0000     -10.181287      -277.0469
  13   1.0000     -10.180910      -277.0366
  14   1.0000     -10.173785      -276.8428
  15   1.0000     -10.171348      -276.7764
  16   1.0000      -0.866988       -23.5919
  17   1.0000      -0.812280       -22.1033
  18   1.0000      -0.794848       -21.6289
  19   1.0000      -0.774634       -21.0789
  20   1.0000      -0.763028       -20.7631
  21   1.0000      -0.731334       -19.9006
  22   1.0000      -0.723015       -19.6742
  23   1.0000      -0.684282       -18.6203
  24   1.0000      -0.669172       -18.2091
  25   1.0000      -0.624844       -17.0029
  26   1.0000      -0.611600       -16.6425
  27   1.0000      -0.592248       -16.1159
  28   1.0000      -0.577529       -15.7154
  29   1.0000      -0.565747       -15.3947
  30   1.0000      -0.527210       -14.3461
  31   1.0000      -0.494080       -13.4446
  32   1.0000      -0.489375       -13.3166
  33   1.0000      -0.470926       -12.8145
  34   1.0000      -0.457673       -12.4539
  35   1.0000      -0.448412       -12.2019
  36   1.0000      -0.428912       -11.6713
  37   1.0000      -0.422405       -11.4942
  38   1.0000      -0.420727       -11.4486
  39   1.0000      -0.417106       -11.3500
  40   1.0000      -0.411282       -11.1916
  41   1.0000      -0.401093       -10.9143
  42   1.0000      -0.386535       -10.5181
  43   1.0000      -0.381873       -10.3913
  44   1.0000      -0.374747       -10.1974
  45   1.0000      -0.365984        -9.9589
  46   1.0000      -0.352560        -9.5937
  47   1.0000      -0.352090        -9.5808
  48   1.0000      -0.339892        -9.2489
  49   1.0000      -0.334038        -9.0896
  50   1.0000      -0.329966        -8.9788
  51   1.0000      -0.324921        -8.8416
  52   1.0000      -0.321273        -8.7423
  53   1.0000      -0.320741        -8.7278
  54   1.0000      -0.306001        -8.3267
  55   1.0000      -0.275746        -7.5034
  56   1.0000      -0.273181        -7.4336
  57   1.0000      -0.233800        -6.3620
  58   1.0000      -0.178702        -4.8627
  59   0.0000      -0.033802        -0.9198
  60   0.0000       0.006109         0.1662
  61   0.0000       0.017370         0.4727
  62   0.0000       0.023648         0.6435
  63   0.0000       0.025639         0.6977

                 SPIN DOWN ORBITALS
  NO   OCC          E(Eh)            E(eV)
   0   1.0000     -10.219361      -278.0829
   1   1.0000     -10.209350      -277.8105
   2   1.0000     -10.207582      -277.7624
   3   1.0000     -10.203673      -277.6561
   4   1.0000     -10.203145      -277.6417
   5   1.0000     -10.197322      -277.4832
   6   1.0000     -10.193917      -277.3906
   7   1.0000     -10.191763      -277.3320
   8   1.0000     -10.187311      -277.2108
   9   1.0000     -10.185891      -277.1722
  10   1.0000     -10.183874      -277.1173
  11   1.0000     -10.182267      -277.0736
  12   1.0000     -10.181285      -277.0468
  13   1.0000     -10.180911      -277.0367
  14   1.0000     -10.173771      -276.8424
  15   1.0000     -10.171350      -276.7765
  16   1.0000      -0.863307       -23.4918
  17   1.0000      -0.809123       -22.0174
  18   1.0000      -0.793914       -21.6035
  19   1.0000      -0.771485       -20.9932
  20   1.0000      -0.761446       -20.7200
  21   1.0000      -0.729413       -19.8483
  22   1.0000      -0.719280       -19.5726
  23   1.0000      -0.682115       -18.5613
  24   1.0000      -0.661809       -18.0088
  25   1.0000      -0.618661       -16.8346
  26   1.0000      -0.609094       -16.5743
  27   1.0000      -0.590576       -16.0704
  28   1.0000      -0.576640       -15.6912
  29   1.0000      -0.564249       -15.3540
  30   1.0000      -0.525398       -14.2968
  31   1.0000      -0.492472       -13.4008
  32   1.0000      -0.487435       -13.2638
  33   1.0000      -0.470033       -12.7903
  34   1.0000      -0.455441       -12.3932
  35   1.0000      -0.447768       -12.1844
  36   1.0000      -0.427623       -11.6362
  37   1.0000      -0.419631       -11.4187
  38   1.0000      -0.419444       -11.4136
  39   1.0000      -0.414897       -11.2899
  40   1.0000      -0.409262       -11.1366
  41   1.0000      -0.397721       -10.8225
  42   1.0000      -0.383844       -10.4449
  43   1.0000      -0.379581       -10.3289
  44   1.0000      -0.371835       -10.1182
  45   1.0000      -0.364907        -9.9296
  46   1.0000      -0.351357        -9.5609
  47   1.0000      -0.348908        -9.4943
  48   1.0000      -0.338494        -9.2109
  49   1.0000      -0.333375        -9.0716
  50   1.0000      -0.329319        -8.9612
  51   1.0000      -0.324280        -8.8241
  52   1.0000      -0.320327        -8.7166
  53   1.0000      -0.319936        -8.7059
  54   1.0000      -0.301233        -8.1970
  55   1.0000      -0.273087        -7.4311
  56   1.0000      -0.257919        -7.0183
  57   1.0000      -0.225724        -6.1423
  58   0.0000      -0.083445        -2.2707
  59   0.0000      -0.023536        -0.6404
  60   0.0000       0.017325         0.4714
  61   0.0000       0.020653         0.5620
  62   0.0000       0.024030         0.6539

MULLIKEN ATOMIC CHARGES AND SPIN POPULATIONS
--------------------------------------------
   0 C :    0.014614    0.026138
   1 C :    0.242400    0.221944
   2 C :    0.474618   -0.135852
   3 C :   -0.444671    0.211963
   4 C :    0.436227   -0.096026
   5 C :    0.281458    0.245571
   6 C :   -0.380958   -0.117166
   7 H :    0.120257   -0.011529
   8 H :    0.116735    0.005380
   9 C :   -0.584651    0.745890
  10 H :    0.151317   -0.030182
  11 H :    0.149142   -0.030267
  12 C :   -0.426163   -0.013738
  13 H :    0.136236    0.002036
  14 H :    0.141178    0.005344
  15 C :   -0.262425    0.010716
  16 H :    0.157912   -0.001186
  17 H :    0.154540   -0.000410
  18 C :   -0.511771    0.000907
  19 H :    0.161183   -0.000015
  20 H :    0.162227    0.000218
  21 C :   -0.387897   -0.017815
  22 H :    0.155875    0.011421
  23 H :    0.155036    0.011409
  24 C :   -0.267020    0.000961
  25 H :    0.140721    0.000241
  26 H :    0.140315    0.000230
  27 C :   -0.262400   -0.000288
  28 H :    0.145035    0.000049
  29 H :    0.145072    0.000052
  30 C :   -0.511595   -0.000097
  31 H :    0.158859    0.000024
  32 H :    0.159205    0.000024
  33 C :   -0.539503   -0.048184
  34 H :    0.182388    0.001971
  35 H :    0.151159    0.000274
  36 H :    0.145346   -0.000006
Sum of atomic charges         :   -0.0000000

LOEWDIN ATOMIC CHARGES AND SPIN POPULATIONS
-------------------------------------------
   0 C :   -0.029054    0.013949
   1 C :   -0.043472    0.180775
   2 C :   -0.088930   -0.071566
   3 C :    0.009855    0.176580
   4 C :   -0.081028   -0.059071
   5 C :   -0.033983    0.193575
   6 C :   -0.038008   -0.066918
   7 H :    0.058865    0.000487
   8 H :    0.055616   -0.000665
   9 C :   -0.029260    0.624993
  10 H :    0.034083    0.005123
  11 H :    0.036007    0.004087
  12 C :   -0.057045    0.000732
  13 H :    0.049392    0.001281
  14 H :    0.049533    0.003513
  15 C :   -0.077177    0.009958
  16 H :    0.044002    0.000261
  17 H :    0.043738    0.000220
  18 C :   -0.077734    0.000869
  19 H :    0.033958    0.000014
  20 H :    0.034130    0.000135
  21 C :   -0.044950    0.001896
  22 H :    0.060278    0.009116
  23 H :    0.060398    0.009015
  24 C :   -0.080841    0.000208
  25 H :    0.043949    0.000024
  26 H :    0.043682    0.000024
  27 C :   -0.089893   -0.000009
  28 H :    0.041150    0.000063
  29 H :    0.041199    0.000065
  30 C :   -0.079093   -0.000039
  31 H :    0.033697    0.000016
  32 H :    0.033806    0.000016
  33 C :   -0.065949   -0.038736
  34 H :    0.044662   -0.000231
  35 H :    0.032746    0.000244
  36 H :    0.031673   -0.000007

  Mayer bond orders larger than 0.100000
B(  0-C ,  4-C ) :   0.9201 B(  0-C , 33-C ) :   2.7161 B(  1-C ,  2-C ) :   1.3682
B(  1-C ,  5-C ) :   0.1109 B(  1-C ,  6-C ) :   1.5050 B(  1-C ,  9-C ) :   0.1107
B(  1-C , 12-C ) :   0.8203 B(  2-C ,  3-C ) :   1.2581 B(  2-C ,  4-C ) :   0.1126
B(  2-C ,  6-C ) :   0.1407 B(  2-C ,  9-C ) :   1.1005 B(  3-C ,  4-C ) :   1.4715
B(  3-C ,  7-H ) :   0.9818 B(  3-C ,  9-C ) :   0.1385 B(  4-C ,  5-C ) :   1.3372
B(  5-C ,  6-C ) :   1.4103 B(  5-C , 21-C ) :   0.9406 B(  6-C ,  8-H ) :   0.9783
B(  9-C , 10-H ) :   0.9646 B(  9-C , 11-H ) :   0.9816 B( 12-C , 13-H ) :   0.9915
B( 12-C , 14-H ) :   0.9714 B( 12-C , 15-C ) :   0.9753 B( 15-C , 16-H ) :   0.9711
B( 15-C , 17-H ) :   0.9738 B( 15-C , 18-C ) :   0.9524 B( 18-C , 19-H ) :   0.9733
B( 18-C , 20-H ) :   0.9725 B( 18-C , 35-H ) :   0.9709 B( 21-C , 22-H ) :   0.9583
B( 21-C , 23-H ) :   0.9585 B( 21-C , 24-C ) :   1.0184 B( 24-C , 25-H ) :   0.9619
B( 24-C , 26-H ) :   0.9620 B( 24-C , 27-C ) :   0.9857 B( 27-C , 28-H ) :   0.9716
B( 27-C , 29-H ) :   0.9719 B( 27-C , 30-C ) :   0.9541 B( 30-C , 31-H ) :   0.9733
B( 30-C , 32-H ) :   0.9731 B( 30-C , 36-H ) :   0.9678 B( 33-C , 34-H ) :   0.9812

FINAL SINGLE POINT ENERGY      -621.921730070592

DIPOLE MOMENT
-------------
                                X             Y             Z
Electronic contribution:    -11.63392      14.70452      -1.62620
Nuclear contribution   :     11.92305     -15.03732       1.66818
                        -----------------------------------------
Total Dipole Moment    :      0.28913      -0.33280       0.04198
                        -----------------------------------------
Magnitude (a.u.)       :      0.44285
Magnitude (Debye)      :      1.12563

Rotational constants in cm-1:     0.018569     0.010157     0.006768
Rotational constants in MHz :   556.687373   304.513693   202.914119

                             ****ORCA TERMINATED NORMALLY****
TOTAL RUN TIME: 0 days 0 hours 9 minutes 21 seconds 985 msec
