                         Program Version 5.0.4 -  RELEASE  -
|  1> ! B3LYP cc-pVDZ OPT
|  2> %pal nprocs 16 end
|  3> *XYZFile 0 2 model.xyz
|  4>
|  5>                          ****END OF INPUT****
 Total Charge           Charge          ....    0
 Multiplicity           Mult            ....    2
 Number of Electrons    NEL             ....  117
FINAL SINGLE POINT ENERGY      -621.857979196189
                    ***********************HURRAY********************

CARTESIAN COORDINATES (ANGSTROEM)
---------------------------------
  C     -2.631254    0.130040    0.153618
  C      1.576073   -0.218268   -0.504915
  C      0.963883    1.083255   -0.473502
  C     -0.443221    1.138381   -0.249565
  C     -1.220096   -0.005181   -0.066164
  C     -0.610813   -1.294615   -0.103079
  C      0.774257   -1.347118   -0.322980
  H     -0.932054    2.114791   -0.222291
  H      1.262593   -2.323151   -0.358854
  C      1.682181    2.281840   -0.657448
  H      2.755140    2.296584   -0.842674
  H      1.162652    3.241230   -0.627097
  C      3.066103   -0.388858   -0.697740
  H      3.262481   -1.405155   -1.080710
  H      3.433529    0.305528   -1.473508
  C      3.887275   -0.182432    0.592554
  H      3.688368    0.826444    0.994430
  H      3.528201   -0.891693    1.359533
  C      5.390182   -0.368914    0.373185
  H      5.781250    0.351972   -0.365653
  H      5.618721   -1.381441   -0.002445
  C     -1.463893   -2.531456    0.086049
  H     -2.000569   -2.437299    1.048740
  H     -2.266577   -2.516022   -0.675150
  C     -0.750675   -3.885280    0.036580
  H     -0.231388   -4.001584   -0.932616
  H      0.034651   -3.925419    0.813943
  C     -1.711369   -5.064580    0.233027
  H     -2.235633   -4.949112    1.199775
  H     -2.497582   -5.025078   -0.543585
  C     -1.013273   -6.426080    0.186891
  H     -0.245260   -6.509857    0.975232
  H     -0.509185   -6.585150   -0.782141
  C     -3.826218    0.249365    0.343367
  H     -4.878905    0.360833    0.514750
  H      5.953593   -0.225504    1.309596
  H     -1.728700   -7.252170    0.329745

 Multiplicity           Mult            ....    2
 Number of Electrons    NEL             ....  117
 Basis Dimension        Dim             ....  329

ORBITAL ENERGIES
----------------
                 SPIN UP ORBITALS
  NO   OCC          E(Eh)            E(eV)
   0   1.0000     -10.206363      -277.7292
   1   1.0000     -10.201068      -277.5852
   2   1.0000     -10.197161      -277.4789
   3   1.0000     -10.195328      -277.4290
   4   1.0000     -10.192884      -277.3625
   5   1.0000     -10.189968      -277.2831
   6   1.0000     -10.188492      -277.2430
   7   1.0000     -10.186236      -277.1816
   8   1.0000     -10.185456      -277.1603
   9   1.0000     -10.184190      -277.1259
  10   1.0000     -10.182710      -277.0856
  11   1.0000     -10.182389      -277.0769
  12   1.0000     -10.181710      -277.0584
  13   1.0000     -10.181524      -277.0533
  14   1.0000     -10.177790      -276.9518
  15   1.0000     -10.175905      -276.9004
  16   1.0000      -0.869099       -23.6494
  17   1.0000      -0.814421       -22.1615
  18   1.0000      -0.797039       -21.6885
  19   1.0000      -0.776528       -21.1304
  20   1.0000      -0.764104       -20.7923
  21   1.0000      -0.731958       -19.9176
  22   1.0000      -0.723696       -19.6928
  23   1.0000      -0.684534       -18.6271
  24   1.0000      -0.669484       -18.2176
  25   1.0000      -0.624251       -16.9867
  26   1.0000      -0.611211       -16.6319
  27   1.0000      -0.591184       -16.0869
  28   1.0000      -0.576234       -15.6801
  29   1.0000      -0.564736       -15.3672
  30   1.0000      -0.524707       -14.2780
  31   1.0000      -0.492856       -13.4113
  32   1.0000      -0.489565       -13.3217
  33   1.0000      -0.470230       -12.7956
  34   1.0000      -0.457464       -12.4482
  35   1.0000      -0.447709       -12.1828
  36   1.0000      -0.427978       -11.6459
  37   1.0000      -0.421694       -11.4749
  38   1.0000      -0.421065       -11.4578
  39   1.0000      -0.418222       -11.3804
  40   1.0000      -0.411341       -11.1931
  41   1.0000      -0.399757       -10.8779
  42   1.0000      -0.387031       -10.5316
  43   1.0000      -0.379790       -10.3346
  44   1.0000      -0.374496       -10.1906
  45   1.0000      -0.367074        -9.9886
  46   1.0000      -0.351884        -9.5752
  47   1.0000      -0.350834        -9.5467
  48   1.0000      -0.339311        -9.2331
  49   1.0000      -0.335095        -9.1184
  50   1.0000      -0.328366        -8.9353
  51   1.0000      -0.323382        -8.7997
  52   1.0000      -0.322497        -8.7756
  53   1.0000      -0.321111        -8.7379
  54   1.0000      -0.305910        -8.3242
  55   1.0000      -0.275871        -7.5068
  56   1.0000      -0.272005        -7.4016
  57   1.0000      -0.233072        -6.3422
  58   1.0000      -0.177597        -4.8327
  59   0.0000      -0.030419        -0.8277
  60   0.0000       0.011701         0.3184
  61   0.0000       0.047288         1.2868
  62   0.0000       0.058633         1.5955
  63   0.0000       0.063060         1.7159

                 SPIN DOWN ORBITALS
  NO   OCC          E(Eh)            E(eV)
   0   1.0000     -10.208005      -277.7739
   1   1.0000     -10.197853      -277.4977
   2   1.0000     -10.197248      -277.4812
   3   1.0000     -10.193530      -277.3800
   4   1.0000     -10.189508      -277.2706
   5   1.0000     -10.188085      -277.2319
   6   1.0000     -10.186472      -277.1880
   7   1.0000     -10.185680      -277.1665
   8   1.0000     -10.184364      -277.1306
   9   1.0000     -10.183916      -277.1184
  10   1.0000     -10.183021      -277.0941
  11   1.0000     -10.181707      -277.0583
  12   1.0000     -10.181523      -277.0533
  13   1.0000     -10.179882      -277.0087
  14   1.0000     -10.177776      -276.9514
  15   1.0000     -10.175907      -276.9005
  16   1.0000      -0.865371       -23.5479
  17   1.0000      -0.811271       -22.0758
  18   1.0000      -0.796154       -21.6644
  19   1.0000      -0.773179       -21.0393
  20   1.0000      -0.762613       -20.7518
  21   1.0000      -0.729738       -19.8572
  22   1.0000      -0.720292       -19.6002
  23   1.0000      -0.682248       -18.5649
  24   1.0000      -0.662251       -18.0208
  25   1.0000      -0.617847       -16.8125
  26   1.0000      -0.608658       -16.5624
  27   1.0000      -0.589477       -16.0405
  28   1.0000      -0.575339       -15.6558
  29   1.0000      -0.563219       -15.3260
  30   1.0000      -0.522763       -14.2251
  31   1.0000      -0.491316       -13.3694
  32   1.0000      -0.487655       -13.2698
  33   1.0000      -0.469323       -12.7709
  34   1.0000      -0.455334       -12.3903
  35   1.0000      -0.447127       -12.1669
  36   1.0000      -0.426541       -11.6068
  37   1.0000      -0.419900       -11.4261
  38   1.0000      -0.418619       -11.3912
  39   1.0000      -0.416171       -11.3246
  40   1.0000      -0.409351       -11.1390
  41   1.0000      -0.396468       -10.7884
  42   1.0000      -0.384159       -10.4535
  43   1.0000      -0.377302       -10.2669
  44   1.0000      -0.371854       -10.1187
  45   1.0000      -0.365830        -9.9547
  46   1.0000      -0.350817        -9.5462
  47   1.0000      -0.347632        -9.4595
  48   1.0000      -0.337815        -9.1924
  49   1.0000      -0.334417        -9.0999
  50   1.0000      -0.327759        -8.9188
  51   1.0000      -0.322564        -8.7774
  52   1.0000      -0.321709        -8.7541
  53   1.0000      -0.320193        -8.7129
  54   1.0000      -0.301266        -8.1979
  55   1.0000      -0.271925        -7.3995
  56   1.0000      -0.257989        -7.0202
  57   1.0000      -0.224933        -6.1207
  58   0.0000      -0.081191        -2.2093
  59   0.0000      -0.019880        -0.5410
  60   0.0000       0.028462         0.7745
  61   0.0000       0.047824         1.3013
  62   0.0000       0.059569         1.6209

MULLIKEN ATOMIC CHARGES AND SPIN POPULATIONS
--------------------------------------------
   0 C :    0.619028    0.029811
   1 C :   -0.062039    0.245906
   2 C :   -0.046668   -0.170949
   3 C :    0.025349    0.228065
   4 C :   -0.047484   -0.112734
   5 C :   -0.073369    0.262737
   6 C :    0.031326   -0.126010
   7 H :   -0.052407   -0.009566
   8 H :   -0.063334    0.004574
   9 C :    0.043154    0.748257
  10 H :    0.011506   -0.030037
  11 H :    0.007554   -0.029517
  12 C :    0.052342   -0.018361
  13 H :   -0.001050    0.002445
  14 H :    0.008068    0.006872
  15 C :   -0.028801    0.011836
  16 H :    0.011711   -0.000706
  17 H :    0.006886   -0.000241
  18 C :   -0.005636    0.001080
  19 H :    0.016232   -0.000032
  20 H :    0.016637    0.000228
  21 C :    0.044556   -0.020780
  22 H :    0.031633    0.011227
  23 H :    0.031811    0.011379
  24 C :   -0.035740    0.000966
  25 H :    0.015094    0.000215
  26 H :    0.014282    0.000211
  27 C :   -0.023808    0.000023
  28 H :    0.005802    0.000059
  29 H :    0.006099    0.000060
  30 C :    0.003940   -0.000090
  31 H :    0.016021    0.000027
  32 H :    0.016268    0.000025
  33 C :   -0.592146   -0.049261
  34 H :   -0.031115    0.001967
  35 H :    0.015442    0.000321
  36 H :    0.012852   -0.000006
Sum of atomic charges         :   -0.0000000

LOEWDIN ATOMIC CHARGES AND SPIN POPULATIONS
-------------------------------------------
   0 C :   -0.001378    0.014001
   1 C :   -0.000570    0.182175
   2 C :   -0.054653   -0.072370
   3 C :    0.017783    0.177057
   4 C :   -0.063779   -0.059391
   5 C :    0.000623    0.194873
   6 C :   -0.032278   -0.066714
   7 H :    0.029297    0.000011
   8 H :    0.023684   -0.000531
   9 C :   -0.018578    0.624866
  10 H :    0.015917    0.003573
  11 H :    0.019186    0.002338
  12 C :   -0.032706    0.000350
  13 H :    0.028848    0.001593
  14 H :    0.027654    0.004314
  15 C :   -0.043630    0.009877
  16 H :    0.024557    0.000450
  17 H :    0.025091    0.000207
  18 C :   -0.068281    0.000968
  19 H :    0.024982    0.000022
  20 H :    0.025098    0.000161
  21 C :   -0.035640    0.002521
  22 H :    0.039881    0.008823
  23 H :    0.039959    0.008960
  24 C :   -0.043864    0.000175
  25 H :    0.023576    0.000076
  26 H :    0.023423    0.000075
  27 C :   -0.046919    0.000018
  28 H :    0.024189    0.000098
  29 H :    0.024297    0.000102
  30 C :   -0.067691   -0.000043
  31 H :    0.024781    0.000018
  32 H :    0.024869    0.000017
  33 C :   -0.055557   -0.038872
  34 H :    0.021717   -0.000068
  35 H :    0.028582    0.000280
  36 H :    0.027533   -0.000008

  Mayer bond orders larger than 0.100000
B(  0-C ,  4-C ) :   0.8971 B(  0-C , 33-C ) :   2.1447 B(  1-C ,  2-C ) :   1.2752
B(  1-C ,  6-C ) :   1.4276 B(  1-C , 12-C ) :   1.1090 B(  2-C ,  3-C ) :   1.2638
B(  2-C ,  9-C ) :   1.5113 B(  3-C ,  4-C ) :   1.4583 B(  3-C ,  7-H ) :   0.9256
B(  4-C ,  5-C ) :   1.3541 B(  5-C ,  6-C ) :   1.3831 B(  5-C , 21-C ) :   1.0934
B(  6-C ,  8-H ) :   0.9132 B(  9-C , 10-H ) :   0.9055 B(  9-C , 11-H ) :   0.9119
B( 12-C , 13-H ) :   0.9112 B( 12-C , 14-H ) :   0.9047 B( 12-C , 15-C ) :   1.0597
B( 15-C , 16-H ) :   0.9440 B( 15-C , 17-H ) :   0.9435 B( 15-C , 18-C ) :   1.1014
B( 18-C , 19-H ) :   0.9664 B( 18-C , 20-H ) :   0.9668 B( 18-C , 35-H ) :   0.9640
B( 21-C , 22-H ) :   0.8962 B( 21-C , 23-H ) :   0.8968 B( 21-C , 24-C ) :   1.1022
B( 24-C , 25-H ) :   0.9290 B( 24-C , 26-H ) :   0.9296 B( 24-C , 27-C ) :   1.0757
B( 27-C , 28-H ) :   0.9410 B( 27-C , 29-H ) :   0.9411 B( 27-C , 30-C ) :   1.1059
B( 30-C , 31-H ) :   0.9662 B( 30-C , 32-H ) :   0.9662 B( 30-C , 36-H ) :   0.9618
B( 33-C , 34-H ) :   1.1167

FINAL SINGLE POINT ENERGY      -621.857979559054

DIPOLE MOMENT
-------------
                                X             Y             Z
Electronic contribution:    -11.73019      14.80451      -1.69511
Nuclear contribution   :     11.94922     -15.07811       1.72699
                        -----------------------------------------
Total Dipole Moment    :      0.21904      -0.27360       0.03188
                        -----------------------------------------
Magnitude (a.u.)       :      0.35192
Magnitude (Debye)      :      0.89451

Rotational constants in cm-1:     0.018510     0.010262     0.006806
Rotational constants in MHz :   554.927010   307.651229   204.046872

                             ****ORCA TERMINATED NORMALLY****
TOTAL RUN TIME: 0 days 0 hours 2 minutes 29 seconds 123 msec
