                         Program Version 5.0.4 -  RELEASE  -
|  1> ! B3LYP EPR-II OPT FREQ
|  2> %pal nprocs 16 end
|  3> *XYZFile 0 2 model.xyz
|  4>
|  5>                          ****END OF INPUT****
 Total Charge           Charge          ....    0
 Multiplicity           Mult            ....    2
 Number of Electrons    NEL             ....  105
FINAL SINGLE POINT ENERGY      -545.730133701874
FINAL SINGLE POINT ENERGY      -545.760464404425
FINAL SINGLE POINT ENERGY      -545.774717293100
FINAL SINGLE POINT ENERGY      -545.775293697959
FINAL SINGLE POINT ENERGY      -545.775416455922
FINAL SINGLE POINT ENERGY      -545.775422424772
                    ***********************HURRAY********************

CARTESIAN COORDINATES (ANGSTROEM)
---------------------------------
  C      1.314375    0.002750   -0.000078
  C      0.718906    1.258525   -0.003724
  C     -0.696542    1.215019   -0.003792
  C     -1.391134   -0.004682   -0.000411
  C     -0.728083   -1.248246    0.003241
  C      0.688980   -1.231266    0.003375
  H     -1.261652    2.143582   -0.006495
  H      1.263168   -2.152683    0.006084
  C      1.543075    2.540928   -0.007378
  H      2.205455    2.520488   -0.883000
  H      2.207400    2.524194    0.866833
  C      0.746060    3.855004   -0.009298
  H      0.089550    3.890163   -0.889047
  H      0.091504    3.893859    0.871754
  C      1.655161    5.097033   -0.012981
  H      2.314188    5.065625    0.864896
  H      2.312128    5.061905   -0.892259
  C      0.867298    6.418580   -0.014886
  H      0.225720    6.495842    0.870192
  H      0.223253    6.491787   -0.898515
  C     -1.541431   -2.538937    0.006927
  H     -2.204393   -2.525076    0.883271
  H     -2.205457   -2.529384   -0.868661
  C     -0.743296   -3.852196    0.009684
  H     -0.088448   -3.890059   -0.871128
  H     -0.087188   -3.885645    0.889734
  C     -1.649233   -5.096601    0.013502
  H     -2.306595   -5.062980    0.892632
  H     -2.307986   -5.067369   -0.864742
  C     -0.857890   -6.416044    0.016204
  H     -0.213941   -6.487129    0.900031
  H     -0.215771   -6.491880   -0.868558
  H      1.538833    7.283414   -0.017802
  H     -1.527126   -7.282638    0.019223
  H     -2.479488    0.011798   -0.000623

 Multiplicity           Mult            ....    2
 Number of Electrons    NEL             ....  105
 Basis Dimension        Dim             ....  385

ORBITAL ENERGIES
----------------
                 SPIN UP ORBITALS
  NO   OCC          E(Eh)            E(eV)
   0   1.0000     -10.206784      -277.7407
   1   1.0000     -10.204899      -277.6894
   2   1.0000     -10.203995      -277.6648
   3   1.0000     -10.194297      -277.4009
   4   1.0000     -10.193370      -277.3757
   5   1.0000     -10.187104      -277.2052
   6   1.0000     -10.186684      -277.1938
   7   1.0000     -10.186033      -277.1761
   8   1.0000     -10.181218      -277.0450
   9   1.0000     -10.180717      -277.0314
  10   1.0000     -10.180129      -277.0154
  11   1.0000     -10.179705      -277.0039
  12   1.0000     -10.171071      -276.7689
  13   1.0000     -10.170439      -276.7517
  14   1.0000      -0.855431       -23.2775
  15   1.0000      -0.805375       -21.9154
  16   1.0000      -0.789530       -21.4842
  17   1.0000      -0.762017       -20.7355
  18   1.0000      -0.734376       -19.9834
  19   1.0000      -0.726994       -19.7825
  20   1.0000      -0.694022       -18.8853
  21   1.0000      -0.647945       -17.6315
  22   1.0000      -0.616690       -16.7810
  23   1.0000      -0.599915       -16.3245
  24   1.0000      -0.577768       -15.7219
  25   1.0000      -0.567616       -15.4456
  26   1.0000      -0.555918       -15.1273
  27   1.0000      -0.484862       -13.1938
  28   1.0000      -0.470417       -12.8007
  29   1.0000      -0.468802       -12.7568
  30   1.0000      -0.456914       -12.4333
  31   1.0000      -0.435249       -11.8437
  32   1.0000      -0.420222       -11.4348
  33   1.0000      -0.419527       -11.4159
  34   1.0000      -0.418304       -11.3826
  35   1.0000      -0.416450       -11.3322
  36   1.0000      -0.409376       -11.1397
  37   1.0000      -0.388286       -10.5658
  38   1.0000      -0.369825       -10.0634
  39   1.0000      -0.366887        -9.9835
  40   1.0000      -0.361273        -9.8307
  41   1.0000      -0.357431        -9.7262
  42   1.0000      -0.356691        -9.7061
  43   1.0000      -0.334716        -9.1081
  44   1.0000      -0.330252        -8.9866
  45   1.0000      -0.328085        -8.9276
  46   1.0000      -0.324590        -8.8326
  47   1.0000      -0.323479        -8.8023
  48   1.0000      -0.322393        -8.7728
  49   1.0000      -0.315914        -8.5965
  50   1.0000      -0.246842        -6.7169
  51   1.0000      -0.229783        -6.2527
  52   1.0000      -0.229129        -6.2349
  53   0.0000      -0.003421        -0.0931
  54   0.0000      -0.000298        -0.0081
  55   0.0000       0.022394         0.6094
  56   0.0000       0.024245         0.6597
  57   0.0000       0.030129         0.8198

                 SPIN DOWN ORBITALS
  NO   OCC          E(Eh)            E(eV)
   0   1.0000     -10.204127      -277.6684
   1   1.0000     -10.203583      -277.6536
   2   1.0000     -10.193617      -277.3824
   3   1.0000     -10.193114      -277.3687
   4   1.0000     -10.191808      -277.3332
   5   1.0000     -10.187273      -277.2098
   6   1.0000     -10.186955      -277.2011
   7   1.0000     -10.185577      -277.1636
   8   1.0000     -10.181211      -277.0448
   9   1.0000     -10.180713      -277.0313
  10   1.0000     -10.180122      -277.0152
  11   1.0000     -10.179704      -277.0038
  12   1.0000     -10.171071      -276.7689
  13   1.0000     -10.170435      -276.7516
  14   1.0000      -0.848468       -23.0880
  15   1.0000      -0.804181       -21.8829
  16   1.0000      -0.788744       -21.4628
  17   1.0000      -0.760246       -20.6873
  18   1.0000      -0.727051       -19.7841
  19   1.0000      -0.724133       -19.7047
  20   1.0000      -0.692068       -18.8321
  21   1.0000      -0.646880       -17.6025
  22   1.0000      -0.615330       -16.7440
  23   1.0000      -0.595306       -16.1991
  24   1.0000      -0.577555       -15.7161
  25   1.0000      -0.562075       -15.2948
  26   1.0000      -0.548923       -14.9369
  27   1.0000      -0.480933       -13.0869
  28   1.0000      -0.470300       -12.7975
  29   1.0000      -0.468786       -12.7563
  30   1.0000      -0.452457       -12.3120
  31   1.0000      -0.429126       -11.6771
  32   1.0000      -0.419886       -11.4257
  33   1.0000      -0.418787       -11.3958
  34   1.0000      -0.416507       -11.3337
  35   1.0000      -0.416361       -11.3297
  36   1.0000      -0.407927       -11.1003
  37   1.0000      -0.385922       -10.5015
  38   1.0000      -0.365728        -9.9520
  39   1.0000      -0.365270        -9.9395
  40   1.0000      -0.359462        -9.7815
  41   1.0000      -0.356531        -9.7017
  42   1.0000      -0.352507        -9.5922
  43   1.0000      -0.332939        -9.0597
  44   1.0000      -0.329332        -8.9616
  45   1.0000      -0.326631        -8.8881
  46   1.0000      -0.324457        -8.8289
  47   1.0000      -0.322810        -8.7841
  48   1.0000      -0.322175        -8.7668
  49   1.0000      -0.314047        -8.5457
  50   1.0000      -0.243277        -6.6199
  51   1.0000      -0.226523        -6.1640
  52   0.0000      -0.076936        -2.0935
  53   0.0000      -0.000949        -0.0258
  54   0.0000       0.005990         0.1630
  55   0.0000       0.022582         0.6145
  56   0.0000       0.024257         0.6601

MULLIKEN ATOMIC CHARGES AND SPIN POPULATIONS
--------------------------------------------
   0 C :   -0.299896    1.015999
   1 C :    0.437186   -0.076513
   2 C :   -0.229854    0.050328
   3 C :   -0.312000   -0.039751
   4 C :    0.459223    0.059244
   5 C :   -0.243138   -0.080495
   6 H :    0.116850    0.011660
   7 H :    0.122953    0.021969
   8 C :   -0.364213    0.026517
   9 H :    0.152424   -0.001436
  10 H :    0.152363   -0.001435
  11 C :   -0.268724    0.000740
  12 H :    0.142540    0.000050
  13 H :    0.142672    0.000050
  14 C :   -0.265682    0.000292
  15 H :    0.144393   -0.000013
  16 H :    0.144386   -0.000013
  17 C :   -0.510267    0.000129
  18 H :    0.159501   -0.000010
  19 H :    0.159479   -0.000010
  20 C :   -0.386011    0.006478
  21 H :    0.150911    0.001398
  22 H :    0.150861    0.001402
  23 C :   -0.268879   -0.000347
  24 H :    0.143677    0.000151
  25 H :    0.143591    0.000152
  26 C :   -0.265071    0.000405
  27 H :    0.143476   -0.000017
  28 H :    0.143476   -0.000017
  29 C :   -0.510032   -0.000040
  30 H :    0.159841   -0.000000
  31 H :    0.159859   -0.000000
  32 H :    0.145337    0.000018
  33 H :    0.145273   -0.000009
  34 H :    0.103496    0.003122
Sum of atomic charges         :    0.0000000

LOEWDIN ATOMIC CHARGES AND SPIN POPULATIONS
-------------------------------------------
   0 C :    0.002403    0.834279
   1 C :   -0.094164    0.030986
   2 C :   -0.035301    0.042841
   3 C :   -0.052682   -0.029824
   4 C :   -0.062626    0.045439
   5 C :   -0.065890    0.024939
   6 H :    0.052276    0.008181
   7 H :    0.057012    0.015876
   8 C :   -0.052157    0.018317
   9 H :    0.054866   -0.001118
  10 H :    0.054861   -0.001115
  11 C :   -0.080597    0.000388
  12 H :    0.044125    0.000042
  13 H :    0.044160    0.000043
  14 C :   -0.090449    0.000240
  15 H :    0.040819   -0.000005
  16 H :    0.040818   -0.000005
  17 C :   -0.078978    0.000157
  18 H :    0.033771   -0.000003
  19 H :    0.033769   -0.000003
  20 C :   -0.057654    0.006727
  21 H :    0.054290    0.001303
  22 H :    0.054281    0.001305
  23 C :   -0.080037    0.000299
  24 H :    0.044673    0.000063
  25 H :    0.044650    0.000063
  26 C :   -0.090893    0.000373
  27 H :    0.040573    0.000004
  28 H :    0.040574    0.000004
  29 C :   -0.078605    0.000002
  30 H :    0.033972    0.000002
  31 H :    0.033972    0.000002
  32 H :    0.031365    0.000024
  33 H :    0.031364   -0.000006
  34 H :    0.051442    0.000178

  Mayer bond orders larger than 0.100000
B(  0-C ,  1-C ) :   1.2983 B(  0-C ,  4-C ) :   0.1208 B(  0-C ,  5-C ) :   1.3954
B(  1-C ,  2-C ) :   1.4335 B(  1-C ,  8-C ) :   0.9243 B(  2-C ,  3-C ) :   1.4888
B(  2-C ,  6-H ) :   0.9812 B(  3-C ,  4-C ) :   1.4054 B(  3-C , 34-H ) :   0.9879
B(  4-C ,  5-C ) :   1.4146 B(  4-C , 20-C ) :   0.9203 B(  5-C ,  7-H ) :   0.9705
B(  8-C ,  9-H ) :   0.9648 B(  8-C , 10-H ) :   0.9648 B(  8-C , 11-C ) :   1.0138
B( 11-C , 12-H ) :   0.9642 B( 11-C , 13-H ) :   0.9643 B( 11-C , 14-C ) :   0.9852
B( 14-C , 15-H ) :   0.9729 B( 14-C , 16-H ) :   0.9729 B( 14-C , 17-C ) :   0.9553
B( 17-C , 18-H ) :   0.9721 B( 17-C , 19-H ) :   0.9721 B( 17-C , 32-H ) :   0.9687
B( 20-C , 21-H ) :   0.9664 B( 20-C , 22-H ) :   0.9665 B( 20-C , 23-C ) :   1.0168
B( 23-C , 24-H ) :   0.9637 B( 23-C , 25-H ) :   0.9637 B( 23-C , 26-C ) :   0.9841
B( 26-C , 27-H ) :   0.9728 B( 26-C , 28-H ) :   0.9728 B( 26-C , 29-C ) :   0.9564
B( 29-C , 30-H ) :   0.9719 B( 29-C , 31-H ) :   0.9719 B( 29-C , 33-H ) :   0.9687

FINAL SINGLE POINT ENERGY      -545.775423482326

DIPOLE MOMENT
-------------
                                X             Y             Z
Electronic contribution:      1.60723      -0.01549      -0.00270
Nuclear contribution   :     -1.93005       0.00668       0.00270
                        -----------------------------------------
Total Dipole Moment    :     -0.32282      -0.00882      -0.00000
                        -----------------------------------------
Magnitude (a.u.)       :      0.32294
Magnitude (Debye)      :      0.82086

VIBRATIONAL FREQUENCIES
-----------------------

Scaling factor for frequencies =  1.000000000  (already applied!)

   0:         0.00 cm**-1
   1:         0.00 cm**-1
   2:         0.00 cm**-1
   3:         0.00 cm**-1
   4:         0.00 cm**-1
   5:         0.00 cm**-1
   6:       -27.82 cm**-1 ***imaginary mode***
   7:        -7.09 cm**-1 ***imaginary mode***
   8:        57.85 cm**-1
   9:        60.45 cm**-1
  10:        85.70 cm**-1
  11:       105.92 cm**-1
  12:       105.98 cm**-1
  13:       107.85 cm**-1
  14:       143.72 cm**-1
  15:       226.65 cm**-1
  16:       227.72 cm**-1
  17:       237.50 cm**-1
  18:       241.52 cm**-1
  19:       292.75 cm**-1
  20:       304.97 cm**-1
  21:       338.27 cm**-1
  22:       413.25 cm**-1
  23:       440.10 cm**-1
  24:       462.08 cm**-1
  25:       507.49 cm**-1
  26:       562.13 cm**-1
  27:       639.88 cm**-1
  28:       660.46 cm**-1
  29:       730.16 cm**-1
  30:       735.49 cm**-1
  31:       753.16 cm**-1
  32:       770.91 cm**-1
  33:       787.26 cm**-1
  34:       833.18 cm**-1
  35:       840.21 cm**-1
  36:       861.62 cm**-1
  37:       904.69 cm**-1
  38:       906.95 cm**-1
  39:       934.25 cm**-1
  40:       947.26 cm**-1
  41:       969.00 cm**-1
  42:      1005.04 cm**-1
  43:      1025.37 cm**-1
  44:      1027.51 cm**-1
  45:      1066.81 cm**-1
  46:      1069.59 cm**-1
  47:      1105.33 cm**-1
  48:      1117.04 cm**-1
  49:      1119.92 cm**-1
  50:      1123.64 cm**-1
  51:      1154.45 cm**-1
  52:      1198.45 cm**-1
  53:      1212.68 cm**-1
  54:      1237.83 cm**-1
  55:      1238.43 cm**-1
  56:      1255.17 cm**-1
  57:      1264.81 cm**-1
  58:      1283.66 cm**-1
  59:      1311.73 cm**-1
  60:      1313.16 cm**-1
  61:      1313.24 cm**-1
  62:      1328.91 cm**-1
  63:      1329.64 cm**-1
  64:      1360.93 cm**-1
  65:      1365.92 cm**-1
  66:      1389.40 cm**-1
  67:      1399.21 cm**-1
  68:      1410.04 cm**-1
  69:      1410.91 cm**-1
  70:      1418.15 cm**-1
  71:      1475.77 cm**-1
  72:      1479.44 cm**-1
  73:      1490.08 cm**-1
  74:      1490.24 cm**-1
  75:      1495.71 cm**-1
  76:      1502.23 cm**-1
  77:      1503.36 cm**-1
  78:      1505.64 cm**-1
  79:      1505.65 cm**-1
  80:      1515.80 cm**-1
  81:      1516.16 cm**-1
  82:      1554.28 cm**-1
  83:      1641.45 cm**-1
  84:      3000.41 cm**-1
  85:      3003.59 cm**-1
  86:      3004.43 cm**-1
  87:      3008.34 cm**-1
  88:      3013.45 cm**-1
  89:      3016.17 cm**-1
  90:      3019.81 cm**-1
  91:      3020.08 cm**-1
  92:      3026.40 cm**-1
  93:      3030.02 cm**-1
  94:      3035.96 cm**-1
  95:      3039.86 cm**-1
  96:      3060.55 cm**-1
  97:      3061.75 cm**-1
  98:      3088.61 cm**-1
  99:      3088.97 cm**-1
 100:      3092.34 cm**-1
 101:      3092.63 cm**-1
 102:      3152.22 cm**-1
 103:      3176.82 cm**-1
 104:      3185.25 cm**-1

IR SPECTRUM
-----------

 Mode   freq       eps      Int      T**2         TX        TY        TZ
       cm**-1   L/(mol*cm) km/mol    a.u.
----------------------------------------------------------------------------
  8:     57.85   0.000110    0.56  0.000596  (-0.000173  0.000182  0.024403)
  9:     60.45   0.000014    0.07  0.000071  ( 0.007712 -0.003388  0.000586)
 10:     85.70   0.000006    0.03  0.000020  (-0.000010  0.000020  0.004512)
 11:    105.92   0.000006    0.03  0.000017  ( 0.000038 -0.000162  0.004134)
 12:    105.98   0.000008    0.04  0.000025  (-0.000874  0.004904  0.000149)
 13:    107.85   0.000005    0.03  0.000015  (-0.000019 -0.000017 -0.003904)
 14:    143.72   0.000391    1.97  0.000848  ( 0.000027  0.000089  0.029126)
 15:    226.65   0.000010    0.05  0.000014  (-0.000403 -0.003674  0.000011)
 16:    227.72   0.000115    0.58  0.000157  ( 0.006297 -0.010855  0.000041)
 17:    237.50   0.000003    0.01  0.000003  ( 0.000003  0.000006  0.001813)
 18:    241.52   0.000005    0.02  0.000006  (-0.000020 -0.000016 -0.002504)
 19:    292.75   0.000042    0.21  0.000045  ( 0.000010  0.000029  0.006684)
 20:    304.97   0.000042    0.21  0.000043  ( 0.002686 -0.005960  0.000039)
 21:    338.27   0.000044    0.22  0.000040  (-0.002653  0.005782 -0.000023)
 22:    413.25   0.000775    3.92  0.000585  (-0.000004 -0.000078 -0.024189)
 23:    440.10   0.000509    2.57  0.000361  ( 0.004789 -0.018386  0.000055)
 24:    462.08   0.000026    0.13  0.000018  ( 0.002876 -0.003057  0.000005)
 25:    507.49   0.001520    7.68  0.000935  (-0.000006  0.000114  0.030571)
 26:    562.13   0.000107    0.54  0.000059  (-0.005366 -0.005515  0.000037)
 27:    639.88   0.000122    0.61  0.000059  (-0.007340  0.002322 -0.000009)
 28:    660.46   0.000454    2.30  0.000215  ( 0.000005  0.000051  0.014651)
 29:    730.16   0.000747    3.77  0.000319  (-0.000032 -0.000018 -0.017868)
 30:    735.49   0.000165    0.84  0.000070  (-0.000012 -0.000014 -0.008375)
 31:    753.16   0.000020    0.10  0.000008  ( 0.002897 -0.000222  0.000033)
 32:    770.91   0.002615   13.22  0.001059  (-0.000007 -0.000107 -0.032535)
 33:    787.26   0.000011    0.06  0.000004  ( 0.000002  0.000002  0.002103)
 34:    833.18   0.000104    0.53  0.000039  ( 0.004888  0.003891  0.000007)
 35:    840.21   0.003373   17.05  0.001253  (-0.000027  0.000096  0.035395)
 36:    861.62   0.001150    5.81  0.000416  ( 0.000024  0.000065  0.020408)
 37:    904.69   0.001565    7.91  0.000540  ( 0.010549  0.020702 -0.000067)
 38:    906.95   0.000021    0.11  0.000007  ( 0.001415  0.002306 -0.000007)
 39:    934.25   0.000085    0.43  0.000028  (-0.000003 -0.000003  0.005326)
 40:    947.26   0.001463    7.39  0.000482  ( 0.000000  0.000047  0.021950)
 41:    969.00   0.000000    0.00  0.000000  (-0.000016  0.000008  0.000276)
 42:   1005.04   0.001751    8.85  0.000544  ( 0.011831  0.020093 -0.000057)
 43:   1025.37   0.000043    0.22  0.000013  (-0.003536 -0.000762  0.000005)
 44:   1027.51   0.000330    1.67  0.000100  ( 0.009619  0.002747 -0.000013)
 45:   1066.81   0.000003    0.02  0.000001  ( 0.000877  0.000485  0.000000)
 46:   1069.59   0.000005    0.02  0.000001  (-0.001079 -0.000391  0.000002)
 47:   1105.33   0.001178    5.95  0.000333  (-0.014002 -0.011681  0.000034)
 48:   1117.04   0.000004    0.02  0.000001  (-0.000128  0.000984 -0.000005)
 49:   1119.92   0.000010    0.05  0.000003  (-0.000004 -0.000006 -0.001660)
 50:   1123.64   0.000043    0.22  0.000012  ( 0.000012  0.000013 -0.003467)
 51:   1154.45   0.000293    1.48  0.000079  ( 0.007842 -0.004194  0.000025)
 52:   1198.45   0.000746    3.77  0.000194  (-0.009144 -0.010513  0.000034)
 53:   1212.68   0.000115    0.58  0.000030  (-0.003582 -0.004101  0.000015)
 54:   1237.83   0.000001    0.01  0.000000  (-0.000001 -0.000015  0.000535)
 55:   1238.43   0.000025    0.13  0.000006  ( 0.000017  0.000034 -0.002521)
 56:   1255.17   0.002208   11.16  0.000549  (-0.017906 -0.015111  0.000042)
 57:   1264.81   0.000010    0.05  0.000003  (-0.001382 -0.000772 -0.000003)
 58:   1283.66   0.000399    2.02  0.000097  (-0.007321 -0.006590  0.000021)
 59:   1311.73   0.000050    0.25  0.000012  ( 0.000011 -0.000169  0.003456)
 60:   1313.16   0.000143    0.72  0.000034  (-0.000245  0.003052 -0.004961)
 61:   1313.24   0.001202    6.07  0.000286  (-0.001404  0.016816  0.000892)
 62:   1328.91   0.000024    0.12  0.000006  (-0.000009 -0.000003 -0.002367)
 63:   1329.64   0.000043    0.22  0.000010  (-0.000013 -0.000007 -0.003185)
 64:   1360.93   0.000583    2.95  0.000134  ( 0.007876  0.008463 -0.000026)
 65:   1365.92   0.002364   11.95  0.000540  (-0.012356 -0.019685  0.000056)
 66:   1389.40   0.002252   11.38  0.000506  (-0.003263 -0.022251  0.000057)
 67:   1399.21   0.000099    0.50  0.000022  (-0.002149 -0.004179  0.000009)
 68:   1410.04   0.002257   11.41  0.000499  (-0.016856  0.014676 -0.000021)
 69:   1410.91   0.000029    0.15  0.000006  (-0.000374  0.002501 -0.000011)
 70:   1418.15   0.001131    5.72  0.000249  (-0.005357 -0.014841  0.000045)
 71:   1475.77   0.002051   10.37  0.000434  (-0.017404 -0.011439  0.000037)
 72:   1479.44   0.001404    7.10  0.000296  ( 0.015219  0.008039 -0.000030)
 73:   1490.08   0.000772    3.90  0.000162  (-0.000425 -0.012708  0.000027)
 74:   1490.24   0.000080    0.41  0.000017  ( 0.000894  0.003999 -0.000010)
 75:   1495.71   0.003599   18.19  0.000751  ( 0.015185  0.022810 -0.000061)
 76:   1502.23   0.000022    0.11  0.000005  ( 0.002135  0.000031 -0.000000)
 77:   1503.36   0.000973    4.92  0.000202  ( 0.003208  0.013848 -0.000036)
 78:   1505.64   0.000865    4.37  0.000179  (-0.000011 -0.000035 -0.013391)
 79:   1505.65   0.002960   14.96  0.000614  ( 0.000025  0.000046  0.024770)
 80:   1515.80   0.000438    2.21  0.000090  (-0.008915 -0.003275  0.000017)
 81:   1516.16   0.003726   18.83  0.000767  ( 0.026648  0.007529 -0.000037)
 82:   1554.28   0.000402    2.03  0.000081  (-0.003692  0.008192 -0.000022)
 83:   1641.45   0.000979    4.95  0.000186  ( 0.003864  0.013081 -0.000035)
 84:   3000.41   0.000814    4.12  0.000085  (-0.009040 -0.001726  0.000018)
 85:   3003.59   0.000031    0.16  0.000003  (-0.000632 -0.001692  0.000000)
 86:   3004.43   0.000112    0.57  0.000012  (-0.000010 -0.003409  0.000011)
 87:   3008.34   0.000634    3.20  0.000066  (-0.007657  0.002674 -0.000010)
 88:   3013.45   0.012582   63.58  0.001303  ( 0.035767  0.004861 -0.000049)
 89:   3016.17   0.011531   58.28  0.001193  ( 0.033418  0.008735 -0.000085)
 90:   3019.81   0.008526   43.09  0.000881  (-0.021156  0.020820 -0.000014)
 91:   3020.08   0.007599   38.40  0.000785  ( 0.017904 -0.021556  0.000039)
 92:   3026.40   0.000633    3.20  0.000065  ( 0.000024  0.000023  0.008079)
 93:   3030.02   0.000171    0.86  0.000018  (-0.000054 -0.000015 -0.004194)
 94:   3035.96   0.000000    0.00  0.000000  ( 0.000010  0.000002 -0.000221)
 95:   3039.86   0.000005    0.03  0.000001  (-0.000040 -0.000007  0.000724)
 96:   3060.55   0.007635   38.58  0.000778  ( 0.000028  0.000078  0.027901)
 97:   3061.75   0.009129   46.14  0.000930  (-0.000056 -0.000076 -0.030504)
 98:   3088.61   0.011417   57.70  0.001154  ( 0.000048  0.000082  0.033963)
 99:   3088.97   0.014110   71.31  0.001425  (-0.000044 -0.000108 -0.037756)
100:   3092.34   0.009320   47.10  0.000940  (-0.023876 -0.019246  0.000078)
101:   3092.63   0.007619   38.50  0.000769  (-0.021491 -0.017519  0.000077)
102:   3152.22   0.003191   16.12  0.000316  ( 0.015191  0.009224 -0.000024)
103:   3176.82   0.004164   21.04  0.000409  ( 0.013715 -0.014865  0.000046)
104:   3185.25   0.000691    3.49  0.000068  ( 0.001421 -0.008105  0.000024)

--------------------------
THERMOCHEMISTRY AT 298.15K
--------------------------

Temperature         ... 298.15 K
Pressure            ... 1.00 atm
Total Mass          ... 189.32 AMU

Throughout the following assumptions are being made:
  (1) The electronic state is orbitally nondegenerate
      but the spin degeneracy is treated
  (2) There are no thermally accessible electronically excited states
  (3) Hindered rotations indicated by low frequency modes are not
      treated as such but are treated as vibrations and this may
      cause some error
  (4) All equations used are the standard statistical mechanics
      equations for an ideal gas
  (5) All vibrations are strictly harmonic

freq.      57.85  E(vib)   ...       0.51
freq.      60.45  E(vib)   ...       0.51
freq.      85.70  E(vib)   ...       0.48
freq.     105.92  E(vib)   ...       0.45
freq.     105.98  E(vib)   ...       0.45
freq.     107.85  E(vib)   ...       0.45
freq.     143.72  E(vib)   ...       0.41
freq.     226.65  E(vib)   ...       0.33
freq.     227.72  E(vib)   ...       0.33
freq.     237.50  E(vib)   ...       0.32
freq.     241.52  E(vib)   ...       0.31
freq.     292.75  E(vib)   ...       0.27
freq.     304.97  E(vib)   ...       0.26
freq.     338.27  E(vib)   ...       0.23
freq.     413.25  E(vib)   ...       0.19
freq.     440.10  E(vib)   ...       0.17
freq.     462.08  E(vib)   ...       0.16
freq.     507.49  E(vib)   ...       0.14
freq.     562.13  E(vib)   ...       0.11
freq.     639.88  E(vib)   ...       0.09
freq.     660.46  E(vib)   ...       0.08
freq.     730.16  E(vib)   ...       0.06
freq.     735.49  E(vib)   ...       0.06
freq.     753.16  E(vib)   ...       0.06
freq.     770.91  E(vib)   ...       0.05
freq.     787.26  E(vib)   ...       0.05
freq.     833.18  E(vib)   ...       0.04
freq.     840.21  E(vib)   ...       0.04
freq.     861.62  E(vib)   ...       0.04
freq.     904.69  E(vib)   ...       0.03
freq.     906.95  E(vib)   ...       0.03
freq.     934.25  E(vib)   ...       0.03
freq.     947.26  E(vib)   ...       0.03
freq.     969.00  E(vib)   ...       0.03
freq.    1005.04  E(vib)   ...       0.02
freq.    1025.37  E(vib)   ...       0.02
freq.    1027.51  E(vib)   ...       0.02
freq.    1066.81  E(vib)   ...       0.02
freq.    1069.59  E(vib)   ...       0.02
freq.    1105.33  E(vib)   ...       0.02
freq.    1117.04  E(vib)   ...       0.01
freq.    1119.92  E(vib)   ...       0.01
freq.    1123.64  E(vib)   ...       0.01
freq.    1154.45  E(vib)   ...       0.01
freq.    1198.45  E(vib)   ...       0.01
freq.    1212.68  E(vib)   ...       0.01
freq.    1237.83  E(vib)   ...       0.01
freq.    1238.43  E(vib)   ...       0.01
freq.    1255.17  E(vib)   ...       0.01
freq.    1264.81  E(vib)   ...       0.01
freq.    1283.66  E(vib)   ...       0.01
freq.    1311.73  E(vib)   ...       0.01
freq.    1313.16  E(vib)   ...       0.01
freq.    1313.24  E(vib)   ...       0.01
freq.    1328.91  E(vib)   ...       0.01
freq.    1329.64  E(vib)   ...       0.01
freq.    1360.93  E(vib)   ...       0.01
freq.    1365.92  E(vib)   ...       0.01
freq.    1389.40  E(vib)   ...       0.00
freq.    1399.21  E(vib)   ...       0.00
freq.    1410.04  E(vib)   ...       0.00
freq.    1410.91  E(vib)   ...       0.00
freq.    1418.15  E(vib)   ...       0.00
freq.    1475.77  E(vib)   ...       0.00
freq.    1479.44  E(vib)   ...       0.00
freq.    1490.08  E(vib)   ...       0.00
freq.    1490.24  E(vib)   ...       0.00
freq.    1495.71  E(vib)   ...       0.00
freq.    1502.23  E(vib)   ...       0.00
freq.    1503.36  E(vib)   ...       0.00
freq.    1505.64  E(vib)   ...       0.00
freq.    1505.65  E(vib)   ...       0.00
freq.    1515.80  E(vib)   ...       0.00
freq.    1516.16  E(vib)   ...       0.00
freq.    1554.28  E(vib)   ...       0.00
freq.    1641.45  E(vib)   ...       0.00
freq.    3000.41  E(vib)   ...       0.00
freq.    3003.59  E(vib)   ...       0.00
freq.    3004.43  E(vib)   ...       0.00
freq.    3008.34  E(vib)   ...       0.00
freq.    3013.45  E(vib)   ...       0.00
freq.    3016.17  E(vib)   ...       0.00
freq.    3019.81  E(vib)   ...       0.00
freq.    3020.08  E(vib)   ...       0.00
freq.    3026.40  E(vib)   ...       0.00
freq.    3030.02  E(vib)   ...       0.00
freq.    3035.96  E(vib)   ...       0.00
freq.    3039.86  E(vib)   ...       0.00
freq.    3060.55  E(vib)   ...       0.00
freq.    3061.75  E(vib)   ...       0.00
freq.    3088.61  E(vib)   ...       0.00
freq.    3088.97  E(vib)   ...       0.00
freq.    3092.34  E(vib)   ...       0.00
freq.    3092.63  E(vib)   ...       0.00
freq.    3152.22  E(vib)   ...       0.00
freq.    3176.82  E(vib)   ...       0.00
freq.    3185.25  E(vib)   ...       0.00

------------
INNER ENERGY
------------

The inner energy is: U= E(el) + E(ZPE) + E(vib) + E(rot) + E(trans)
    E(el)   - is the total energy from the electronic structure calculation
              = E(kin-el) + E(nuc-el) + E(el-el) + E(nuc-nuc)
    E(ZPE)  - the the zero temperature vibrational energy from the frequency calculation
    E(vib)  - the the finite temperature correction to E(ZPE) due to population
              of excited vibrational states
    E(rot)  - is the rotational thermal energy
    E(trans)- is the translational thermal energy

Summary of contributions to the inner energy U:
Electronic energy                ...   -545.77542348 Eh
Zero point energy                ...      0.31198767 Eh     195.77 kcal/mol
Thermal vibrational correction   ...      0.01140769 Eh       7.16 kcal/mol
Thermal rotational correction    ...      0.00141627 Eh       0.89 kcal/mol
Thermal translational correction ...      0.00141627 Eh       0.89 kcal/mol
-----------------------------------------------------------------------
Total thermal energy                   -545.44919558 Eh

Summary of corrections to the electronic energy:
(perhaps to be used in another calculation)
Total thermal correction                  0.01424023 Eh       8.94 kcal/mol
Non-thermal (ZPE) correction              0.31198767 Eh     195.77 kcal/mol
-----------------------------------------------------------------------
Total correction                          0.32622790 Eh     204.71 kcal/mol

--------
ENTHALPY
--------

The enthalpy is H = U + kB*T
                kB is Boltzmann's constant
Total free energy                 ...   -545.44919558 Eh
Thermal Enthalpy correction       ...      0.00094421 Eh       0.59 kcal/mol
-----------------------------------------------------------------------
Total Enthalpy                    ...   -545.44825137 Eh

Note: Only C1 symmetry has been detected, increase convergence thresholds
      if your molecule has a higher symmetry. Symmetry factor of 1.0 is

Rotational constants in cm-1:     0.111639     0.005964     0.005710

                             ****ORCA TERMINATED NORMALLY****
TOTAL RUN TIME: 0 days 0 hours 14 minutes 48 seconds 57 msec
