                         Program Version 5.0.4 -  RELEASE  -
|  1> ! B3LYP EPR-II FREQ
|  2> %pal nprocs 16 end
|  3> *XYZFile 0 2 opt.xyz
|  4>
|  5>                          ****END OF INPUT****

CARTESIAN COORDINATES (ANGSTROEM)
---------------------------------
  C     -4.099903    0.083492   -0.018353
  C     -2.815946    0.043661   -0.012330
  C      2.806008   -0.004269   -0.008539
  C     -1.423131    0.006681   -0.011521
  C     -0.708303   -1.246812   -0.013959
  C      0.675892   -1.194656   -0.012684
  C      1.390969    0.032616   -0.009322
  C      0.692187    1.284040   -0.006826
  C     -0.689714    1.234894   -0.008082
  H      1.259776   -2.114722   -0.014385
  H     -1.277365    2.152363   -0.006417
  C     -1.482678   -2.545270   -0.017742
  H     -2.162956   -2.531884   -0.888087
  H     -2.164001   -2.536305    0.851848
  C     -0.664773   -3.838900   -0.020463
  H     -0.001060   -3.863836   -0.904705
  H     -0.002550   -3.868472    0.864757
  C     -1.549765   -5.091581   -0.024486
  H     -2.216738   -5.067647    0.856694
  H     -2.214979   -5.063238   -0.906864
  C     -0.747242   -6.394947   -0.026958
  H     -0.098785   -6.468624    0.863263
  H     -0.096713   -6.463963   -0.916039
  C      1.475610    2.580851   -0.003105
  H      2.150780    2.571663    0.872485
  H      2.151902    2.575969   -0.877872
  C      0.660276    3.876516   -0.000466
  H     -0.001813    3.904739   -0.885019
  H     -0.003430    3.900164    0.883007
  C      1.545553    5.128838    0.003581
  H      2.210398    5.101571    0.886923
  H      2.212314    5.105900   -0.878438
  C      0.742544    6.432044    0.005924
  H      0.091762    6.499753    0.894507
  H      0.094086    6.504395   -0.883993
  C      4.030665   -0.051608   -0.009917
  H     -1.409442   -7.275742   -0.030044
  H      1.404248    7.313240    0.009096
  C      5.453353   -0.107226   -0.009647
  C      6.121835   -1.352501   -0.012193
  C      7.514506   -1.401458   -0.011853
  C      8.262259   -0.217737   -0.009063
  C      7.609924    1.021237   -0.006590
  C      6.217754    1.081653   -0.006879
  H      9.353772   -0.260949   -0.008833
  H      8.191473    1.945911   -0.004438
  H      5.533939   -2.272105   -0.014369
  H      5.703998    2.044629   -0.004992
  H      8.021809   -2.368853   -0.013791

 Total Charge           Charge          ....    0
 Multiplicity           Mult            ....    2
 Number of Electrons    NEL             ....  169
 Basis Dimension        Dim             ....  583

ORBITAL ENERGIES
----------------
                 SPIN UP ORBITALS
  NO   OCC          E(Eh)            E(eV)
   0   1.0000     -10.254950      -279.0514
   1   1.0000     -10.247815      -278.8572
   2   1.0000     -10.242072      -278.7010
   3   1.0000     -10.233346      -278.4635
   4   1.0000     -10.232941      -278.4525
   5   1.0000     -10.230210      -278.3782
   6   1.0000     -10.226198      -278.2690
   7   1.0000     -10.226045      -278.2648
   8   1.0000     -10.225934      -278.2618
   9   1.0000     -10.225113      -278.2395
  10   1.0000     -10.222234      -278.1611
  11   1.0000     -10.222113      -278.1578
  12   1.0000     -10.218646      -278.0635
  13   1.0000     -10.217711      -278.0381
  14   1.0000     -10.203198      -277.6431
  15   1.0000     -10.194421      -277.4043
  16   1.0000     -10.192393      -277.3491
  17   1.0000     -10.190768      -277.3049
  18   1.0000     -10.189064      -277.2585
  19   1.0000     -10.185880      -277.1719
  20   1.0000     -10.185165      -277.1524
  21   1.0000     -10.183843      -277.1164
  22   1.0000     -10.178603      -276.9739
  23   1.0000     -10.176059      -276.9046
  24   1.0000      -0.893824       -24.3222
  25   1.0000      -0.883937       -24.0532
  26   1.0000      -0.833600       -22.6834
  27   1.0000      -0.815244       -22.1839
  28   1.0000      -0.800956       -21.7951
  29   1.0000      -0.797427       -21.6991
  30   1.0000      -0.776422       -21.1275
  31   1.0000      -0.771152       -20.9841
  32   1.0000      -0.754792       -20.5389
  33   1.0000      -0.738259       -20.0890
  34   1.0000      -0.719661       -19.5830
  35   1.0000      -0.706500       -19.2248
  36   1.0000      -0.662662       -18.0320
  37   1.0000      -0.658879       -17.9290
  38   1.0000      -0.634134       -17.2557
  39   1.0000      -0.629693       -17.1348
  40   1.0000      -0.629068       -17.1178
  41   1.0000      -0.602251       -16.3881
  42   1.0000      -0.585571       -15.9342
  43   1.0000      -0.572903       -15.5895
  44   1.0000      -0.559726       -15.2309
  45   1.0000      -0.526227       -14.3194
  46   1.0000      -0.523441       -14.2435
  47   1.0000      -0.500175       -13.6105
  48   1.0000      -0.493230       -13.4215
  49   1.0000      -0.481047       -13.0900
  50   1.0000      -0.477090       -12.9823
  51   1.0000      -0.475601       -12.9418
  52   1.0000      -0.455889       -12.4054
  53   1.0000      -0.446948       -12.1621
  54   1.0000      -0.444709       -12.1012
  55   1.0000      -0.435461       -11.8495
  56   1.0000      -0.434813       -11.8319
  57   1.0000      -0.429539       -11.6883
  58   1.0000      -0.424427       -11.5492
  59   1.0000      -0.418091       -11.3768
  60   1.0000      -0.410067       -11.1585
  61   1.0000      -0.404630       -11.0105
  62   1.0000      -0.391980       -10.6663
  63   1.0000      -0.382860       -10.4181
  64   1.0000      -0.380994       -10.3674
  65   1.0000      -0.374131       -10.1806
  66   1.0000      -0.371330       -10.1044
  67   1.0000      -0.367782       -10.0079
  68   1.0000      -0.367257        -9.9936
  69   1.0000      -0.354782        -9.6541
  70   1.0000      -0.345344        -9.3973
  71   1.0000      -0.340619        -9.2687
  72   1.0000      -0.335801        -9.1376
  73   1.0000      -0.332206        -9.0398
  74   1.0000      -0.330766        -9.0006
  75   1.0000      -0.329494        -8.9660
  76   1.0000      -0.326232        -8.8772
  77   1.0000      -0.312731        -8.5098
  78   1.0000      -0.293570        -7.9884
  79   1.0000      -0.279074        -7.5940
  80   1.0000      -0.267304        -7.2737
  81   1.0000      -0.264336        -7.1929
  82   1.0000      -0.250040        -6.8039
  83   1.0000      -0.246162        -6.6984
  84   1.0000      -0.221084        -6.0160
  85   0.0000      -0.083443        -2.2706
  86   0.0000      -0.033566        -0.9134
  87   0.0000      -0.032935        -0.8962
  88   0.0000      -0.022380        -0.6090
  89   0.0000       0.001166         0.0317

                 SPIN DOWN ORBITALS
  NO   OCC          E(Eh)            E(eV)
   0   1.0000     -10.251871      -278.9676
   1   1.0000     -10.248285      -278.8700
   2   1.0000     -10.242355      -278.7087
   3   1.0000     -10.231300      -278.4078
   4   1.0000     -10.231162      -278.4041
   5   1.0000     -10.230931      -278.3978
   6   1.0000     -10.226841      -278.2865
   7   1.0000     -10.225599      -278.2527
   8   1.0000     -10.225446      -278.2485
   9   1.0000     -10.224471      -278.2220
  10   1.0000     -10.222525      -278.1691
  11   1.0000     -10.222393      -278.1655
  12   1.0000     -10.218844      -278.0689
  13   1.0000     -10.217051      -278.0201
  14   1.0000     -10.203151      -277.6419
  15   1.0000     -10.194553      -277.4079
  16   1.0000     -10.192397      -277.3492
  17   1.0000     -10.190769      -277.3049
  18   1.0000     -10.189068      -277.2586
  19   1.0000     -10.185166      -277.1525
  20   1.0000     -10.182207      -277.0719
  21   1.0000     -10.179549      -276.9996
  22   1.0000     -10.178603      -276.9739
  23   1.0000     -10.176060      -276.9047
  24   1.0000      -0.890802       -24.2400
  25   1.0000      -0.883083       -24.0299
  26   1.0000      -0.831058       -22.6142
  27   1.0000      -0.813654       -22.1406
  28   1.0000      -0.800471       -21.7819
  29   1.0000      -0.794670       -21.6241
  30   1.0000      -0.775974       -21.1153
  31   1.0000      -0.770610       -20.9694
  32   1.0000      -0.751294       -20.4438
  33   1.0000      -0.737418       -20.0662
  34   1.0000      -0.711094       -19.3498
  35   1.0000      -0.700099       -19.0506
  36   1.0000      -0.661847       -18.0098
  37   1.0000      -0.653859       -17.7924
  38   1.0000      -0.631228       -17.1766
  39   1.0000      -0.629136       -17.1197
  40   1.0000      -0.628623       -17.1057
  41   1.0000      -0.600946       -16.3526
  42   1.0000      -0.585439       -15.9306
  43   1.0000      -0.572390       -15.5755
  44   1.0000      -0.559034       -15.2121
  45   1.0000      -0.524500       -14.2724
  46   1.0000      -0.521388       -14.1877
  47   1.0000      -0.499248       -13.5852
  48   1.0000      -0.492149       -13.3921
  49   1.0000      -0.480939       -13.0870
  50   1.0000      -0.476734       -12.9726
  51   1.0000      -0.474938       -12.9237
  52   1.0000      -0.455523       -12.3954
  53   1.0000      -0.446175       -12.1411
  54   1.0000      -0.444553       -12.0969
  55   1.0000      -0.434139       -11.8135
  56   1.0000      -0.433310       -11.7910
  57   1.0000      -0.429393       -11.6844
  58   1.0000      -0.423118       -11.5136
  59   1.0000      -0.417911       -11.3719
  60   1.0000      -0.409432       -11.1412
  61   1.0000      -0.401552       -10.9268
  62   1.0000      -0.387450       -10.5431
  63   1.0000      -0.382240       -10.4013
  64   1.0000      -0.380518       -10.3544
  65   1.0000      -0.374054       -10.1785
  66   1.0000      -0.371056       -10.0969
  67   1.0000      -0.366691        -9.9782
  68   1.0000      -0.365267        -9.9394
  69   1.0000      -0.352437        -9.5903
  70   1.0000      -0.340512        -9.2658
  71   1.0000      -0.337966        -9.1965
  72   1.0000      -0.335774        -9.1369
  73   1.0000      -0.332120        -9.0375
  74   1.0000      -0.330586        -8.9957
  75   1.0000      -0.329125        -8.9560
  76   1.0000      -0.325813        -8.8658
  77   1.0000      -0.298885        -8.1331
  78   1.0000      -0.292640        -7.9631
  79   1.0000      -0.277565        -7.5529
  80   1.0000      -0.262776        -7.1505
  81   1.0000      -0.246745        -6.7143
  82   1.0000      -0.240682        -6.5493
  83   1.0000      -0.239555        -6.5186
  84   0.0000      -0.156411        -4.2562
  85   0.0000      -0.072432        -1.9710
  86   0.0000      -0.032111        -0.8738
  87   0.0000      -0.022495        -0.6121
  88   0.0000      -0.015696        -0.4271

MULLIKEN ATOMIC CHARGES AND SPIN POPULATIONS
--------------------------------------------
   0 C :   -0.510002    0.311854
   1 C :   -0.133355    0.285318
   2 C :   -0.384351   -0.069047
   3 C :    0.406979   -0.018373
   4 C :    0.329305    0.140458
   5 C :   -0.414736   -0.081185
   6 C :    0.552602    0.200345
   7 C :    0.263844   -0.065474
   8 C :   -0.364487    0.106734
   9 H :    0.136470    0.003157
  10 H :    0.149983   -0.005881
  11 C :   -0.369756   -0.016307
  12 H :    0.164293    0.007119
  13 H :    0.164203    0.007121
  14 C :   -0.263172    0.000472
  15 H :    0.136534   -0.000033
  16 H :    0.136500   -0.000033
  17 C :   -0.251593    0.000059
  18 H :    0.145614   -0.000010
  19 H :    0.145654   -0.000010
  20 C :   -0.507829   -0.000035
  21 H :    0.156055    0.000016
  22 H :    0.156048    0.000016
  23 C :   -0.354003    0.003504
  24 H :    0.151512   -0.001772
  25 H :    0.151402   -0.001772
  26 C :   -0.262509   -0.000426
  27 H :    0.142586    0.000120
  28 H :    0.142567    0.000120
  29 C :   -0.254238   -0.000074
  30 H :    0.140404    0.000014
  31 H :    0.140383    0.000014
  32 C :   -0.504696    0.000010
  33 H :    0.159578   -0.000006
  34 H :    0.159596   -0.000006
  35 C :   -0.274041    0.140497
  36 H :    0.145820   -0.000004
  37 H :    0.142771   -0.000003
  38 C :    0.588274   -0.025068
  39 C :   -0.269962    0.039211
  40 C :   -0.095956   -0.020980
  41 C :   -0.109161    0.046854
  42 C :   -0.098772   -0.020956
  43 C :   -0.264862    0.039250
  44 H :    0.111655   -0.002605
  45 H :    0.110719    0.001011
  46 H :    0.122990   -0.002111
  47 H :    0.122394   -0.002108
  48 H :    0.110748    0.001006
Sum of atomic charges         :    0.0000000

LOEWDIN ATOMIC CHARGES AND SPIN POPULATIONS
-------------------------------------------
   0 C :   -0.156807    0.325493
   1 C :   -0.142383    0.248007
   2 C :   -0.023149   -0.031278
   3 C :   -0.051195    0.008264
   4 C :   -0.014766    0.110321
   5 C :   -0.006612   -0.047056
   6 C :   -0.032675    0.152985
   7 C :   -0.042709   -0.036795
   8 C :    0.019665    0.090932
   9 H :    0.065213   -0.000416
  10 H :    0.069995   -0.000038
  11 C :   -0.043432   -0.000531
  12 H :    0.069494    0.005151
  13 H :    0.069453    0.005149
  14 C :   -0.085187   -0.000166
  15 H :    0.045955   -0.000067
  16 H :    0.045950   -0.000067
  17 C :   -0.092453   -0.000035
  18 H :    0.045347    0.000016
  19 H :    0.045355    0.000016
  20 C :   -0.084538   -0.000027
  21 H :    0.035893    0.000010
  22 H :    0.035895    0.000010
  23 C :   -0.047331   -0.000103
  24 H :    0.062104   -0.001486
  25 H :    0.062111   -0.001485
  26 C :   -0.081411   -0.000112
  27 H :    0.048877    0.000103
  28 H :    0.048868    0.000103
  29 C :   -0.095941   -0.000039
  30 H :    0.043159   -0.000012
  31 H :    0.043159   -0.000012
  32 C :   -0.082149    0.000001
  33 H :    0.037553   -0.000004
  34 H :    0.037554   -0.000004
  35 C :   -0.004278    0.111279
  36 H :    0.035049   -0.000005
  37 H :    0.034385   -0.000002
  38 C :   -0.076199   -0.013070
  39 C :   -0.006718    0.031906
  40 C :   -0.039357   -0.012759
  41 C :   -0.030154    0.036658
  42 C :   -0.039747   -0.012756
  43 C :   -0.007135    0.031849
  44 H :    0.054308    0.000154
  45 H :    0.055140   -0.000071
  46 H :    0.060460    0.000029
  47 H :    0.060154    0.000029
  48 H :    0.055228   -0.000070

  Mayer bond orders larger than 0.100000
B(  0-C ,  1-C ) :   2.0293 B(  1-C ,  3-C ) :   1.0930 B(  1-C ,  8-C ) :   0.1156
B(  2-C ,  6-C ) :   0.8563 B(  2-C ,  7-C ) :   0.1004 B(  2-C , 35-C ) :   2.4332
B(  3-C ,  4-C ) :   1.2587 B(  3-C ,  5-C ) :   0.1054 B(  3-C ,  8-C ) :   1.3328
B(  4-C ,  5-C ) :   1.4958 B(  4-C ,  6-C ) :   0.1106 B(  4-C , 11-C ) :   0.9643
B(  5-C ,  6-C ) :   1.3846 B(  5-C ,  9-H ) :   0.9659 B(  6-C ,  7-C ) :   1.3148
B(  6-C ,  8-C ) :   0.1429 B(  6-C , 35-C ) :   0.1225 B(  7-C ,  8-C ) :   1.5120
B(  7-C , 23-C ) :   0.9679 B(  8-C , 10-H ) :   0.9615 B( 11-C , 12-H ) :   0.9515
B( 11-C , 13-H ) :   0.9514 B( 11-C , 14-C ) :   1.0160 B( 14-C , 15-H ) :   0.9607
B( 14-C , 16-H ) :   0.9608 B( 14-C , 17-C ) :   0.9911 B( 17-C , 18-H ) :   0.9696
B( 17-C , 19-H ) :   0.9696 B( 17-C , 20-C ) :   0.9538 B( 20-C , 21-H ) :   0.9732
B( 20-C , 22-H ) :   0.9732 B( 20-C , 36-H ) :   0.9670 B( 23-C , 24-H ) :   0.9550
B( 23-C , 25-H ) :   0.9551 B( 23-C , 26-C ) :   1.0253 B( 26-C , 27-H ) :   0.9597
B( 26-C , 28-H ) :   0.9597 B( 26-C , 29-C ) :   0.9886 B( 29-C , 30-H ) :   0.9711
B( 29-C , 31-H ) :   0.9711 B( 29-C , 32-C ) :   0.9575 B( 32-C , 33-H ) :   0.9722
B( 32-C , 34-H ) :   0.9722 B( 32-C , 37-H ) :   0.9666 B( 35-C , 38-C ) :   1.0247
B( 38-C , 39-C ) :   1.3797 B( 38-C , 43-C ) :   1.3754 B( 39-C , 40-C ) :   1.4838
B( 39-C , 41-C ) :   0.1009 B( 39-C , 46-H ) :   0.9796 B( 40-C , 41-C ) :   1.4499
B( 40-C , 48-H ) :   0.9727 B( 41-C , 42-C ) :   1.4524 B( 41-C , 43-C ) :   0.1023
B( 41-C , 44-H ) :   0.9629 B( 42-C , 43-C ) :   1.4838 B( 42-C , 45-H ) :   0.9735
B( 43-C , 47-H ) :   0.9778

FINAL SINGLE POINT ENERGY      -928.919402369280

DIPOLE MOMENT
-------------
                                X             Y             Z
Electronic contribution:      9.14994      -0.22437       0.00175
Nuclear contribution   :     -5.17354       0.11309       0.00539
                        -----------------------------------------
Total Dipole Moment    :      3.97641      -0.11128       0.00713
                        -----------------------------------------
Magnitude (a.u.)       :      3.97797
Magnitude (Debye)      :     10.11120

VIBRATIONAL FREQUENCIES
-----------------------

Scaling factor for frequencies =  1.000000000  (already applied!)

   0:         0.00 cm**-1
   1:         0.00 cm**-1
   2:         0.00 cm**-1
   3:         0.00 cm**-1
   4:         0.00 cm**-1
   5:         0.00 cm**-1
   6:       -25.74 cm**-1 ***imaginary mode***
   7:         6.34 cm**-1
   8:         8.99 cm**-1
   9:        34.01 cm**-1
  10:        58.67 cm**-1
  11:        67.21 cm**-1
  12:        69.20 cm**-1
  13:        71.42 cm**-1
  14:        96.42 cm**-1
  15:       114.87 cm**-1
  16:       134.15 cm**-1
  17:       135.43 cm**-1
  18:       149.27 cm**-1
  19:       158.52 cm**-1
  20:       163.26 cm**-1
  21:       174.22 cm**-1
  22:       198.67 cm**-1
  23:       220.96 cm**-1
  24:       228.71 cm**-1
  25:       258.65 cm**-1
  26:       271.38 cm**-1
  27:       291.43 cm**-1
  28:       319.08 cm**-1
  29:       332.62 cm**-1
  30:       332.94 cm**-1
  31:       363.03 cm**-1
  32:       406.61 cm**-1
  33:       434.16 cm**-1
  34:       436.47 cm**-1
  35:       440.42 cm**-1
  36:       468.25 cm**-1
  37:       474.64 cm**-1
  38:       487.59 cm**-1
  39:       524.50 cm**-1
  40:       559.61 cm**-1
  41:       565.73 cm**-1
  42:       627.19 cm**-1
  43:       633.91 cm**-1
  44:       637.62 cm**-1
  45:       654.87 cm**-1
  46:       708.19 cm**-1
  47:       734.39 cm**-1
  48:       739.22 cm**-1
  49:       771.37 cm**-1
  50:       777.00 cm**-1
  51:       792.58 cm**-1
  52:       804.99 cm**-1
  53:       818.02 cm**-1
  54:       823.03 cm**-1
  55:       874.20 cm**-1
  56:       887.22 cm**-1
  57:       928.49 cm**-1
  58:       929.71 cm**-1
  59:       934.88 cm**-1
  60:       944.86 cm**-1
  61:       968.00 cm**-1
  62:       979.01 cm**-1
  63:       986.05 cm**-1
  64:      1007.97 cm**-1
  65:      1019.59 cm**-1
  66:      1031.14 cm**-1
  67:      1036.21 cm**-1
  68:      1040.82 cm**-1
  69:      1054.16 cm**-1
  70:      1077.96 cm**-1
  71:      1081.31 cm**-1
  72:      1094.85 cm**-1
  73:      1113.49 cm**-1
  74:      1124.41 cm**-1
  75:      1132.47 cm**-1
  76:      1137.19 cm**-1
  77:      1141.76 cm**-1
  78:      1175.74 cm**-1
  79:      1189.12 cm**-1
  80:      1194.22 cm**-1
  81:      1208.21 cm**-1
  82:      1220.49 cm**-1
  83:      1252.17 cm**-1
  84:      1254.04 cm**-1
  85:      1292.81 cm**-1
  86:      1295.01 cm**-1
  87:      1300.28 cm**-1
  88:      1324.60 cm**-1
  89:      1326.63 cm**-1
  90:      1328.79 cm**-1
  91:      1336.00 cm**-1
  92:      1344.31 cm**-1
  93:      1344.80 cm**-1
  94:      1349.31 cm**-1
  95:      1379.79 cm**-1
  96:      1380.98 cm**-1
  97:      1393.97 cm**-1
  98:      1423.00 cm**-1
  99:      1423.50 cm**-1
 100:      1430.96 cm**-1
 101:      1432.17 cm**-1
 102:      1439.59 cm**-1
 103:      1472.52 cm**-1
 104:      1478.64 cm**-1
 105:      1480.55 cm**-1
 106:      1498.66 cm**-1
 107:      1498.81 cm**-1
 108:      1502.18 cm**-1
 109:      1509.56 cm**-1
 110:      1510.40 cm**-1
 111:      1511.70 cm**-1
 112:      1512.02 cm**-1
 113:      1523.64 cm**-1
 114:      1524.33 cm**-1
 115:      1527.02 cm**-1
 116:      1540.17 cm**-1
 117:      1621.41 cm**-1
 118:      1629.84 cm**-1
 119:      1656.70 cm**-1
 120:      1998.67 cm**-1
 121:      2258.66 cm**-1
 122:      2938.22 cm**-1
 123:      2940.61 cm**-1
 124:      2945.29 cm**-1
 125:      2949.77 cm**-1
 126:      2953.59 cm**-1
 127:      2955.59 cm**-1
 128:      2958.33 cm**-1
 129:      2961.68 cm**-1
 130:      2961.94 cm**-1
 131:      2965.76 cm**-1
 132:      2969.30 cm**-1
 133:      2978.85 cm**-1
 134:      2995.73 cm**-1
 135:      2996.04 cm**-1
 136:      3017.09 cm**-1
 137:      3020.29 cm**-1
 138:      3026.91 cm**-1
 139:      3027.67 cm**-1
 140:      3116.85 cm**-1
 141:      3125.46 cm**-1
 142:      3136.18 cm**-1
 143:      3143.95 cm**-1
 144:      3149.29 cm**-1
 145:      3154.22 cm**-1
 146:      3161.08 cm**-1

IR SPECTRUM
-----------

 Mode   freq       eps      Int      T**2         TX        TY        TZ
       cm**-1   L/(mol*cm) km/mol    a.u.
----------------------------------------------------------------------------
  7:      6.34   0.001469    7.42  0.072334  (-0.003130 -0.000230  0.268931)
  8:      8.99   0.000007    0.04  0.000242  (-0.004046 -0.014941  0.001526)
  9:     34.01   0.000000    0.00  0.000003  (-0.000328 -0.000116  0.001796)
 10:     58.67   0.000035    0.18  0.000186  (-0.009608 -0.009669  0.000037)
 11:     67.21   0.000000    0.00  0.000001  (-0.000251 -0.000207  0.000822)
 12:     69.20   0.002605   13.17  0.011749  (-0.002319  0.000297  0.108367)
 13:     71.42   0.001096    5.54  0.004789  ( 0.005494  0.068984 -0.000442)
 14:     96.42   0.000902    4.56  0.002920  (-0.002729 -0.053970 -0.000137)
 15:    114.87   0.000976    4.93  0.002652  (-0.002952 -0.000173  0.051409)
 16:    134.15   0.000042    0.21  0.000097  (-0.000862 -0.009808 -0.000272)
 17:    135.43   0.000385    1.94  0.000886  ( 0.001308  0.000219 -0.029741)
 18:    149.27   0.000060    0.30  0.000125  (-0.000474  0.000035  0.011150)
 19:    158.52   0.000001    0.00  0.000001  (-0.000513  0.000031 -0.000923)
 20:    163.26   0.000082    0.41  0.000156  (-0.000506 -0.000002  0.012474)
 21:    174.22   0.000004    0.02  0.000007  ( 0.000523 -0.000081  0.002526)
 22:    198.67   0.000121    0.61  0.000191  (-0.013336  0.003567 -0.000106)
 23:    220.96   0.001388    7.01  0.001960  (-0.002736  0.000163  0.044186)
 24:    228.71   0.000022    0.11  0.000030  ( 0.002462 -0.004852 -0.000004)
 25:    258.65   0.000116    0.58  0.000140  ( 0.009626  0.006844 -0.000221)
 26:    271.38   0.000071    0.36  0.000082  ( 0.000340  0.000067 -0.009040)
 27:    291.43   0.000013    0.07  0.000014  ( 0.003149  0.002031  0.000015)
 28:    319.08   0.000023    0.12  0.000023  (-0.000672  0.004742  0.000029)
 29:    332.62   0.000010    0.05  0.000009  (-0.000155 -0.000016  0.002992)
 30:    332.94   0.000000    0.00  0.000000  (-0.000136 -0.000000  0.000133)
 31:    363.03   0.000217    1.10  0.000187  ( 0.001058  0.000112 -0.013620)
 32:    406.61   0.000001    0.00  0.000000  (-0.000060  0.000013 -0.000617)
 33:    434.16   0.000605    3.06  0.000435  (-0.001385  0.000541  0.020797)
 34:    436.47   0.000583    2.94  0.000416  ( 0.008909 -0.018345  0.000755)
 35:    440.42   0.000039    0.20  0.000028  ( 0.000250  0.005282  0.000035)
 36:    468.25   0.000910    4.60  0.000607  (-0.000295  0.000147 -0.024627)
 37:    474.64   0.001114    5.63  0.000733  ( 0.016001  0.021833 -0.000146)
 38:    487.59   0.002088   10.55  0.001336  ( 0.036511 -0.001737  0.000069)
 39:    524.50   0.000064    0.32  0.000038  ( 0.005372 -0.003037  0.000007)
 40:    559.61   0.000702    3.55  0.000391  (-0.000058  0.000220 -0.019779)
 41:    565.73   0.000095    0.48  0.000052  (-0.004916  0.005301  0.000049)
 42:    627.19   0.000001    0.00  0.000000  ( 0.000188  0.000498  0.000003)
 43:    633.91   0.001466    7.41  0.000722  (-0.026373  0.005130  0.000067)
 44:    637.62   0.000089    0.45  0.000044  (-0.001379 -0.006458 -0.000004)
 45:    654.87   0.000014    0.07  0.000007  (-0.000650  0.000024 -0.002477)
 46:    708.19   0.003713   18.76  0.001636  ( 0.000029 -0.000254  0.040448)
 47:    734.39   0.000055    0.28  0.000023  (-0.004284  0.002193  0.000026)
 48:    739.22   0.000092    0.46  0.000039  ( 0.000410  0.000020 -0.006210)
 49:    771.37   0.002163   10.93  0.000875  ( 0.000192  0.000066 -0.029579)
 50:    777.00   0.000000    0.00  0.000000  (-0.000213 -0.000002 -0.000346)
 51:    792.58   0.000485    2.45  0.000191  (-0.013204  0.004058 -0.000040)
 52:    804.99   0.011668   58.96  0.004523  (-0.000095 -0.000394  0.067253)
 53:    818.02   0.000007    0.04  0.000003  ( 0.000238 -0.000017  0.001638)
 54:    823.03   0.000092    0.46  0.000035  (-0.000046  0.000036 -0.005891)
 55:    874.20   0.000536    2.71  0.000191  ( 0.001197 -0.013783 -0.000035)
 56:    887.22   0.000001    0.01  0.000000  ( 0.000030 -0.000015  0.000672)
 57:    928.49   0.000145    0.73  0.000049  ( 0.002403 -0.006547 -0.000027)
 58:    929.71   0.001626    8.22  0.000546  (-0.011805 -0.020162 -0.000077)
 59:    934.88   0.000047    0.24  0.000016  (-0.000031 -0.000004 -0.003942)
 60:    944.86   0.000672    3.40  0.000222  ( 0.000275 -0.000196  0.014896)
 61:    968.00   0.000540    2.73  0.000174  ( 0.000022  0.000155 -0.013192)
 62:    979.01   0.000438    2.21  0.000140  ( 0.000007  0.000053 -0.011811)
 63:    986.05   0.002874   14.53  0.000910  ( 0.000226 -0.000227  0.030159)
 64:   1007.97   0.000878    4.44  0.000272  (-0.016487  0.000327  0.000004)
 65:   1019.59   0.000001    0.01  0.000000  ( 0.000106 -0.000008  0.000630)
 66:   1031.14   0.000085    0.43  0.000026  ( 0.005053 -0.000416  0.000025)
 67:   1036.21   0.000000    0.00  0.000000  ( 0.000015 -0.000041 -0.000237)
 68:   1040.82   0.000127    0.64  0.000038  ( 0.003190  0.005293  0.000011)
 69:   1054.16   0.000112    0.57  0.000033  (-0.005582 -0.001443  0.000004)
 70:   1077.96   0.001590    8.03  0.000460  ( 0.021454  0.000000  0.000029)
 71:   1081.31   0.000332    1.68  0.000096  (-0.009017 -0.003817 -0.000006)
 72:   1094.85   0.003399   17.18  0.000969  ( 0.030935 -0.003437  0.000028)
 73:   1113.49   0.001096    5.54  0.000307  (-0.001199 -0.017482 -0.000024)
 74:   1124.41   0.000418    2.11  0.000116  (-0.007604 -0.007631 -0.000031)
 75:   1132.47   0.002615   13.21  0.000720  ( 0.026823 -0.000991 -0.000004)
 76:   1137.19   0.000027    0.14  0.000007  (-0.000047 -0.000001  0.002737)
 77:   1141.76   0.000014    0.07  0.000004  ( 0.000021  0.000026 -0.001949)
 78:   1175.74   0.002034   10.28  0.000540  ( 0.005318 -0.022617 -0.000080)
 79:   1189.12   0.004395   22.21  0.001153  ( 0.033739  0.003880 -0.000002)
 80:   1194.22   0.000022    0.11  0.000006  (-0.000550 -0.002360 -0.000004)
 81:   1208.21   0.005267   26.62  0.001360  ( 0.036783  0.002710  0.000026)
 82:   1220.49   0.026143  132.11  0.006684  (-0.081569 -0.005557 -0.000057)
 83:   1252.17   0.000006    0.03  0.000002  (-0.000037  0.000010  0.001249)
 84:   1254.04   0.000000    0.00  0.000000  (-0.000002 -0.000002  0.000017)
 85:   1292.81   0.000068    0.34  0.000016  ( 0.000118 -0.004047 -0.000018)
 86:   1295.01   0.000117    0.59  0.000028  ( 0.005128 -0.001413 -0.000008)
 87:   1300.28   0.000485    2.45  0.000116  (-0.010711 -0.001286  0.000002)
 88:   1324.60   0.000021    0.11  0.000005  ( 0.000001  0.000020 -0.002248)
 89:   1326.63   0.000025    0.13  0.000006  (-0.000040  0.000021  0.002415)
 90:   1328.79   0.005201   26.28  0.001221  ( 0.023254 -0.026090 -0.000033)
 91:   1336.00   0.000343    1.73  0.000080  ( 0.005941 -0.006693 -0.000005)
 92:   1344.31   0.000064    0.32  0.000015  (-0.000011  0.000015 -0.003856)
 93:   1344.80   0.000156    0.79  0.000036  (-0.000005  0.000002  0.006024)
 94:   1349.31   0.004308   21.77  0.000996  ( 0.028835  0.012839  0.000037)
 95:   1379.79   0.000506    2.56  0.000114  (-0.010257  0.003032  0.000016)
 96:   1380.98   0.000194    0.98  0.000044  (-0.000852  0.006561  0.000015)
 97:   1393.97   0.000895    4.52  0.000200  ( 0.013172  0.005174  0.000016)
 98:   1423.00   0.000323    1.63  0.000071  ( 0.004956 -0.006801 -0.000021)
 99:   1423.50   0.000994    5.02  0.000218  (-0.002606 -0.014529 -0.000026)
100:   1430.96   0.000600    3.03  0.000131  ( 0.009937 -0.005671 -0.000006)
101:   1432.17   0.001842    9.31  0.000401  ( 0.015019 -0.013261 -0.000026)
102:   1439.59   0.005418   27.38  0.001175  ( 0.000533 -0.034267 -0.000114)
103:   1472.52   0.002685   13.57  0.000569  (-0.023768 -0.002020 -0.000013)
104:   1478.64   0.001302    6.58  0.000275  ( 0.000066  0.016577  0.000044)
105:   1480.55   0.000508    2.57  0.000107  ( 0.010349 -0.000131  0.000014)
106:   1498.66   0.000400    2.02  0.000083  (-0.009091  0.000777  0.000012)
107:   1498.81   0.001309    6.62  0.000273  (-0.002721  0.016283  0.000039)
108:   1502.18   0.004144   20.94  0.000861  ( 0.023948 -0.016949 -0.000062)
109:   1509.56   0.000388    1.96  0.000080  ( 0.008885  0.001128  0.000006)
110:   1510.40   0.000321    1.62  0.000066  (-0.004725  0.006633  0.000018)
111:   1511.70   0.001808    9.14  0.000373  (-0.000035 -0.000043  0.019320)
112:   1512.02   0.001767    8.93  0.000365  ( 0.000034  0.000043 -0.019098)
113:   1523.64   0.006001   30.33  0.001229  (-0.029121 -0.019519 -0.000069)
114:   1524.33   0.001208    6.11  0.000247  ( 0.014629  0.005772  0.000031)
115:   1527.02   0.002214   11.19  0.000453  (-0.003479  0.020986  0.000043)
116:   1540.17   0.018288   92.42  0.003705  (-0.051978 -0.031681 -0.000086)
117:   1621.41   0.000264    1.33  0.000051  ( 0.003150 -0.006388 -0.000015)
118:   1629.84   0.061606  311.33  0.011796  ( 0.108532  0.004049 -0.000041)
119:   1656.70   0.000176    0.89  0.000033  ( 0.005709  0.000741 -0.000018)
120:   1998.67   0.103777  524.45  0.016203  ( 0.127285 -0.001126  0.000703)
121:   2258.66   0.116006  586.25  0.016028  ( 0.126594  0.001337 -0.000001)
122:   2938.22   0.000955    4.83  0.000101  (-0.009212 -0.004070 -0.000034)
123:   2940.61   0.001615    8.16  0.000171  ( 0.012489 -0.003925  0.000012)
124:   2945.29   0.000418    2.11  0.000044  ( 0.006128  0.002595  0.000024)
125:   2949.77   0.004326   21.86  0.000458  ( 0.021149  0.003226  0.000029)
126:   2953.59   0.004961   25.07  0.000524  ( 0.022457  0.004457  0.000027)
127:   2955.59   0.006158   31.12  0.000650  ( 0.015712 -0.020083 -0.000027)
128:   2958.33   0.007391   37.35  0.000780  ( 0.018385 -0.021016 -0.000040)
129:   2961.68   0.000735    3.71  0.000077  (-0.000024  0.000033 -0.008799)
130:   2961.94   0.000135    0.68  0.000014  ( 0.000054 -0.000024  0.003764)
131:   2965.76   0.002571   12.99  0.000271  (-0.015731  0.004807  0.000016)
132:   2969.30   0.000034    0.17  0.000004  ( 0.000027 -0.000007 -0.001902)
133:   2978.85   0.000891    4.50  0.000093  ( 0.000016  0.000012 -0.009661)
134:   2995.73   0.004522   22.85  0.000471  (-0.000017 -0.000056  0.021704)
135:   2996.04   0.006222   31.44  0.000648  ( 0.000032  0.000082 -0.025457)
136:   3017.09   0.014014   70.82  0.001450  (-0.000043 -0.000100  0.038072)
137:   3020.29   0.012510   63.22  0.001293  ( 0.000047  0.000097 -0.035952)
138:   3026.91   0.008908   45.02  0.000918  ( 0.022420  0.020390  0.000077)
139:   3027.67   0.007027   35.51  0.000724  ( 0.018950  0.019110  0.000086)
140:   3116.85   0.000590    2.98  0.000059  (-0.007686  0.000198 -0.000001)
141:   3125.46   0.000945    4.77  0.000094  (-0.000613 -0.009693 -0.000020)
142:   3136.18   0.003924   19.83  0.000390  (-0.019727  0.001156 -0.000003)
143:   3143.95   0.004074   20.59  0.000404  (-0.000907 -0.020088 -0.000041)
144:   3149.29   0.004535   22.92  0.000449  (-0.021190  0.000612 -0.000004)
145:   3154.22   0.001053    5.32  0.000104  (-0.003238  0.009680  0.000016)
146:   3161.08   0.000223    1.13  0.000022  (-0.001545  0.004434  0.000012)

--------------------------
THERMOCHEMISTRY AT 298.15K
--------------------------

Temperature         ... 298.15 K
Pressure            ... 1.00 atm
Total Mass          ... 313.46 AMU

Throughout the following assumptions are being made:
  (1) The electronic state is orbitally nondegenerate
      but the spin degeneracy is treated
  (2) There are no thermally accessible electronically excited states
  (3) Hindered rotations indicated by low frequency modes are not
      treated as such but are treated as vibrations and this may
      cause some error
  (4) All equations used are the standard statistical mechanics
      equations for an ideal gas
  (5) All vibrations are strictly harmonic

freq.       6.34  E(vib)   ...       0.58
freq.       8.99  E(vib)   ...       0.58
freq.      34.01  E(vib)   ...       0.55
freq.      58.67  E(vib)   ...       0.51
freq.      67.21  E(vib)   ...       0.50
freq.      69.20  E(vib)   ...       0.50
freq.      71.42  E(vib)   ...       0.50
freq.      96.42  E(vib)   ...       0.47
freq.     114.87  E(vib)   ...       0.44
freq.     134.15  E(vib)   ...       0.42
freq.     135.43  E(vib)   ...       0.42
freq.     149.27  E(vib)   ...       0.40
freq.     158.52  E(vib)   ...       0.39
freq.     163.26  E(vib)   ...       0.39
freq.     174.22  E(vib)   ...       0.38
freq.     198.67  E(vib)   ...       0.35
freq.     220.96  E(vib)   ...       0.33
freq.     228.71  E(vib)   ...       0.32
freq.     258.65  E(vib)   ...       0.30
freq.     271.38  E(vib)   ...       0.29
freq.     291.43  E(vib)   ...       0.27
freq.     319.08  E(vib)   ...       0.25
freq.     332.62  E(vib)   ...       0.24
freq.     332.94  E(vib)   ...       0.24
freq.     363.03  E(vib)   ...       0.22
freq.     406.61  E(vib)   ...       0.19
freq.     434.16  E(vib)   ...       0.17
freq.     436.47  E(vib)   ...       0.17
freq.     440.42  E(vib)   ...       0.17
freq.     468.25  E(vib)   ...       0.16
freq.     474.64  E(vib)   ...       0.15
freq.     487.59  E(vib)   ...       0.15
freq.     524.50  E(vib)   ...       0.13
freq.     559.61  E(vib)   ...       0.12
freq.     565.73  E(vib)   ...       0.11
freq.     627.19  E(vib)   ...       0.09
freq.     633.91  E(vib)   ...       0.09
freq.     637.62  E(vib)   ...       0.09
freq.     654.87  E(vib)   ...       0.08
freq.     708.19  E(vib)   ...       0.07
freq.     734.39  E(vib)   ...       0.06
freq.     739.22  E(vib)   ...       0.06
freq.     771.37  E(vib)   ...       0.05
freq.     777.00  E(vib)   ...       0.05
freq.     792.58  E(vib)   ...       0.05
freq.     804.99  E(vib)   ...       0.05
freq.     818.02  E(vib)   ...       0.05
freq.     823.03  E(vib)   ...       0.05
freq.     874.20  E(vib)   ...       0.04
freq.     887.22  E(vib)   ...       0.04
freq.     928.49  E(vib)   ...       0.03
freq.     929.71  E(vib)   ...       0.03
freq.     934.88  E(vib)   ...       0.03
freq.     944.86  E(vib)   ...       0.03
freq.     968.00  E(vib)   ...       0.03
freq.     979.01  E(vib)   ...       0.03
freq.     986.05  E(vib)   ...       0.02
freq.    1007.97  E(vib)   ...       0.02
freq.    1019.59  E(vib)   ...       0.02
freq.    1031.14  E(vib)   ...       0.02
freq.    1036.21  E(vib)   ...       0.02
freq.    1040.82  E(vib)   ...       0.02
freq.    1054.16  E(vib)   ...       0.02
freq.    1077.96  E(vib)   ...       0.02
freq.    1081.31  E(vib)   ...       0.02
freq.    1094.85  E(vib)   ...       0.02
freq.    1113.49  E(vib)   ...       0.01
freq.    1124.41  E(vib)   ...       0.01
freq.    1132.47  E(vib)   ...       0.01
freq.    1137.19  E(vib)   ...       0.01
freq.    1141.76  E(vib)   ...       0.01
freq.    1175.74  E(vib)   ...       0.01
freq.    1189.12  E(vib)   ...       0.01
freq.    1194.22  E(vib)   ...       0.01
freq.    1208.21  E(vib)   ...       0.01
freq.    1220.49  E(vib)   ...       0.01
freq.    1252.17  E(vib)   ...       0.01
freq.    1254.04  E(vib)   ...       0.01
freq.    1292.81  E(vib)   ...       0.01
freq.    1295.01  E(vib)   ...       0.01
freq.    1300.28  E(vib)   ...       0.01
freq.    1324.60  E(vib)   ...       0.01
freq.    1326.63  E(vib)   ...       0.01
freq.    1328.79  E(vib)   ...       0.01
freq.    1336.00  E(vib)   ...       0.01
freq.    1344.31  E(vib)   ...       0.01
freq.    1344.80  E(vib)   ...       0.01
freq.    1349.31  E(vib)   ...       0.01
freq.    1379.79  E(vib)   ...       0.01
freq.    1380.98  E(vib)   ...       0.01
freq.    1393.97  E(vib)   ...       0.00
freq.    1423.00  E(vib)   ...       0.00
freq.    1423.50  E(vib)   ...       0.00
freq.    1430.96  E(vib)   ...       0.00
freq.    1432.17  E(vib)   ...       0.00
freq.    1439.59  E(vib)   ...       0.00
freq.    1472.52  E(vib)   ...       0.00
freq.    1478.64  E(vib)   ...       0.00
freq.    1480.55  E(vib)   ...       0.00
freq.    1498.66  E(vib)   ...       0.00
freq.    1498.81  E(vib)   ...       0.00
freq.    1502.18  E(vib)   ...       0.00
freq.    1509.56  E(vib)   ...       0.00
freq.    1510.40  E(vib)   ...       0.00
freq.    1511.70  E(vib)   ...       0.00
freq.    1512.02  E(vib)   ...       0.00
freq.    1523.64  E(vib)   ...       0.00
freq.    1524.33  E(vib)   ...       0.00
freq.    1527.02  E(vib)   ...       0.00
freq.    1540.17  E(vib)   ...       0.00
freq.    1621.41  E(vib)   ...       0.00
freq.    1629.84  E(vib)   ...       0.00
freq.    1656.70  E(vib)   ...       0.00
freq.    1998.67  E(vib)   ...       0.00
freq.    2258.66  E(vib)   ...       0.00
freq.    2938.22  E(vib)   ...       0.00
freq.    2940.61  E(vib)   ...       0.00
freq.    2945.29  E(vib)   ...       0.00
freq.    2949.77  E(vib)   ...       0.00
freq.    2953.59  E(vib)   ...       0.00
freq.    2955.59  E(vib)   ...       0.00
freq.    2958.33  E(vib)   ...       0.00
freq.    2961.68  E(vib)   ...       0.00
freq.    2961.94  E(vib)   ...       0.00
freq.    2965.76  E(vib)   ...       0.00
freq.    2969.30  E(vib)   ...       0.00
freq.    2978.85  E(vib)   ...       0.00
freq.    2995.73  E(vib)   ...       0.00
freq.    2996.04  E(vib)   ...       0.00
freq.    3017.09  E(vib)   ...       0.00
freq.    3020.29  E(vib)   ...       0.00
freq.    3026.91  E(vib)   ...       0.00
freq.    3027.67  E(vib)   ...       0.00
freq.    3116.85  E(vib)   ...       0.00
freq.    3125.46  E(vib)   ...       0.00
freq.    3136.18  E(vib)   ...       0.00
freq.    3143.95  E(vib)   ...       0.00
freq.    3149.29  E(vib)   ...       0.00
freq.    3154.22  E(vib)   ...       0.00
freq.    3161.08  E(vib)   ...       0.00

------------
INNER ENERGY

Rotational constants in cm-1:     0.006500     0.004325     0.002607

                             ****ORCA TERMINATED NORMALLY****
TOTAL RUN TIME: 0 days 0 hours 24 minutes 9 seconds 469 msec
