 Gaussian 09, Revision D.01,
 Gaussian 09:  ES64L-G09RevD.01 24-Apr-2013

 ---------------------------------------
 #P bmk/6-31+g opt(modredun,calcfc) freq
 ---------------------------------------

 ------------------------------
 Gaussian input prepared by ASE
 ------------------------------
 Symbolic Z-matrix:
 Charge =  0 Multiplicity = 2

 SCF Done:  E(UBMK) =  -852.506367067     A.U. after   26 cycles

  Exact polarizability:   0.000   0.000   0.000   0.000   0.000   0.000
 Approx polarizability: 387.816  65.418 378.007  -0.041  -0.038 189.042

 SCF Done:  E(UBMK) =  -852.507366015     A.U. after   26 cycles
 SCF Done:  E(UBMK) =  -852.501044227     A.U. after   27 cycles
 SCF Done:  E(UBMK) =  -852.507830207     A.U. after   14 cycles
 SCF Done:  E(UBMK) =  -852.507888996     A.U. after   14 cycles
 SCF Done:  E(UBMK) =  -852.507888718     A.U. after   13 cycles
 SCF Done:  E(UBMK) =  -852.507887802     A.U. after   13 cycles
 SCF Done:  E(UBMK) =  -852.507887557     A.U. after   12 cycles
 SCF Done:  E(UBMK) =  -852.507887162     A.U. after   13 cycles
 SCF Done:  E(UBMK) =  -852.507887947     A.U. after   13 cycles
 SCF Done:  E(UBMK) =  -852.507888082     A.U. after   11 cycles
 SCF Done:  E(UBMK) =  -852.507887986     A.U. after   12 cycles
 Optimization completed on the basis of negligible forces.
    -- Stationary point found.

 The electronic state is 2-A.
 Alpha  occ. eigenvalues --  -10.51994 -10.51307 -10.51224 -10.50675 -10.50249
 Alpha  occ. eigenvalues --  -10.49580 -10.49531 -10.49517 -10.49379 -10.49342
 Alpha  occ. eigenvalues --  -10.49292 -10.49163 -10.49155 -10.48891 -10.48054
 Alpha  occ. eigenvalues --  -10.47821 -10.47234 -10.47219 -10.47182 -10.47170
 Alpha  occ. eigenvalues --  -10.46193 -10.46181  -0.95270  -0.94167  -0.89046
 Alpha  occ. eigenvalues --   -0.87122  -0.86428  -0.84368  -0.83474  -0.82359
 Alpha  occ. eigenvalues --   -0.80413  -0.78725  -0.76849  -0.72075  -0.69659
 Alpha  occ. eigenvalues --   -0.68407  -0.67370  -0.67223  -0.64766  -0.64239
 Alpha  occ. eigenvalues --   -0.62797  -0.59721  -0.56511  -0.53705  -0.53032
 Alpha  occ. eigenvalues --   -0.52913  -0.52605  -0.50842  -0.49769  -0.49077
 Alpha  occ. eigenvalues --   -0.47895  -0.47822  -0.47768  -0.47319  -0.47175
 Alpha  occ. eigenvalues --   -0.46444  -0.46315  -0.43509  -0.42478  -0.42360
 Alpha  occ. eigenvalues --   -0.41210  -0.41161  -0.40669  -0.40511  -0.39613
 Alpha  occ. eigenvalues --   -0.39054  -0.37549  -0.37402  -0.37115  -0.36903
 Alpha  occ. eigenvalues --   -0.36658  -0.36082  -0.35956  -0.31150  -0.30827
 Alpha  occ. eigenvalues --   -0.29513  -0.28072  -0.27949  -0.24454
 Alpha virt. eigenvalues --   -0.03008   0.01167   0.01785   0.02801   0.03937
 Alpha virt. eigenvalues --    0.04893   0.05040   0.05445   0.05638   0.06118
 Alpha virt. eigenvalues --    0.06469   0.06916   0.07545   0.07839   0.07983

  Beta  occ. eigenvalues --  -10.51982 -10.51416 -10.50465 -10.50304 -10.49541
  Beta  occ. eigenvalues --  -10.49528 -10.49391 -10.49381 -10.49337 -10.49304
  Beta  occ. eigenvalues --  -10.49295 -10.49221 -10.49148 -10.48905 -10.47990
  Beta  occ. eigenvalues --  -10.47808 -10.47233 -10.47220 -10.47181 -10.47169
  Beta  occ. eigenvalues --  -10.46193 -10.46180  -0.94718  -0.94146  -0.88866
  Beta  occ. eigenvalues --   -0.87111  -0.86201  -0.84171  -0.83107  -0.82365
  Beta  occ. eigenvalues --   -0.80245  -0.78429  -0.76666  -0.71960  -0.69470
  Beta  occ. eigenvalues --   -0.68146  -0.67369  -0.66791  -0.64681  -0.63573
  Beta  occ. eigenvalues --   -0.62508  -0.59646  -0.56378  -0.53663  -0.53015
  Beta  occ. eigenvalues --   -0.52905  -0.52108  -0.50834  -0.49015  -0.49008
  Beta  occ. eigenvalues --   -0.47772  -0.47757  -0.47576  -0.47165  -0.47142
  Beta  occ. eigenvalues --   -0.46273  -0.45701  -0.43516  -0.42337  -0.41964
  Beta  occ. eigenvalues --   -0.41090  -0.40817  -0.40643  -0.40455  -0.39612
  Beta  occ. eigenvalues --   -0.39001  -0.37423  -0.37311  -0.37072  -0.36897
  Beta  occ. eigenvalues --   -0.36596  -0.35924  -0.35721  -0.31106  -0.30410
  Beta  occ. eigenvalues --   -0.29534  -0.27992  -0.23934
  Beta virt. eigenvalues --   -0.05570  -0.02493   0.01150   0.01765   0.03356
  Beta virt. eigenvalues --    0.03939   0.04902   0.05095   0.05452   0.05686
  Beta virt. eigenvalues --    0.06286   0.06505   0.06922   0.07558   0.07833

 Mulliken charges and spin densities:
               1          2
     1  C   -0.611666   0.017670
     2  C    0.161917   1.075612
     3  C    0.672170  -0.038832
     4  C   -0.950072   0.111005
     5  C    0.212775  -0.049242
     6  C    0.509008   0.101044
     7  C   -0.216854  -0.132087
     8  H    0.201681   0.009924
     9  H    0.199832   0.024512
    10  C   -0.399809  -0.089590
    11  H    0.209626  -0.001517
    12  H    0.210685  -0.001780
    13  C   -0.280334   0.003143
    14  H    0.190888   0.000010
    15  H    0.188980   0.000021
    16  C   -0.113395  -0.004650
    17  H    0.183323  -0.000013
    18  H    0.183026  -0.000016
    19  C   -0.714828   0.000412
    20  H    0.188261  -0.000014
    21  H    0.188517  -0.000015
    22  C   -0.366443  -0.008231
    23  H    0.217611   0.002321
    24  H    0.217498   0.002355
    25  C   -0.893779   0.002616
    26  H    0.189835   0.000040
    27  H    0.189593   0.000039
    28  C   -0.108490  -0.000184
    29  H    0.184478   0.000015
    30  H    0.184364   0.000017
    31  C   -0.774709   0.000649
    32  H    0.188515   0.000002
    33  H    0.188523   0.000002
    34  C   -0.518103  -0.019139
    35  H    0.186594   0.000023
    36  H    0.186553  -0.000008
    37  C    0.291363   0.006168
    38  C   -0.280642  -0.007267
    39  C   -0.061487   0.004053
    40  C   -0.121804  -0.007279
    41  C   -0.051541   0.003617
    42  C   -0.237988  -0.005942
    43  H    0.188230   0.000274
    44  H    0.188975  -0.000122
    45  H    0.206032   0.000249
    46  H    0.203837   0.000256
    47  H    0.189252  -0.000121
 Sum of Mulliken charges =   0.00000   1.00000

 Dipole moment (field-independent basis, Debye):
    X=             -0.5557    Y=             -0.5192    Z=              0.0047  Tot=              0.7605
 Quadrupole moment (field-independent basis, Debye-Ang):
   XX=           -119.7221   YY=           -124.5219   ZZ=           -141.3555
   XY=             -2.1268   XZ=             -0.0688   YZ=              0.0669

 Normal termination of Gaussian 09 at Fri May 10 17:07:54 2024.

 ----------------------------------------------------------------
 #P Geom=AllCheck Guess=TCheck SCRF=Check GenChk UBMK/6-31+G Freq
 ----------------------------------------------------------------

 Structure from the checkpoint file:  "g09BDE.chk"
 ------------------------------
 Gaussian input prepared by ASE
 ------------------------------
 Charge =  0 Multiplicity = 2

                         Standard orientation:
 ---------------------------------------------------------------------
 Center     Atomic      Atomic             Coordinates (Angstroms)
 Number     Number       Type             X           Y           Z
 ---------------------------------------------------------------------
      1          6           0       -0.568470   -0.516310   -0.011771
      2          6           0        2.456165    2.354708   -0.037632
      3          6           0        2.869903    1.022652   -0.038057
      4          6           0        1.815615    0.084617   -0.027965
      5          6           0        0.456403    0.491846   -0.018895
      6          6           0        0.101095    1.871846   -0.017360
      7          6           0        1.151854    2.820190   -0.027510
      8          1           0        2.029775   -0.981458   -0.026661
      9          1           0        0.933449    3.884586   -0.026811
     10          6           0        4.349074    0.643853   -0.050707
     11          1           0        4.841708    1.141922    0.799675
     12          1           0        4.808816    1.064019   -0.959897
     13          6           0        4.650385   -0.868122    0.010460
     14          1           0        4.199857   -1.301864    0.917935
     15          1           0        4.192044   -1.377270   -0.852756
     16          6           0        6.169268   -1.154730    0.014715
     17          1           0        6.622156   -0.722767   -0.892087
     18          1           0        6.631466   -0.643561    0.874377
     19          6           0        6.481854   -2.665556    0.080628
     20          1           0        6.049269   -3.190758   -0.783148
     21          1           0        6.059938   -3.110775    0.993245
     22          6           0       -1.367212    2.281341   -0.003681
     23          1           0       -1.862634    1.833512   -0.881270
     24          1           0       -1.848440    1.822346    0.875954
     25          6           0       -1.640050    3.799253    0.009164
     26          1           0       -1.166408    4.257616    0.892457
     27          1           0       -1.189862    4.269528   -0.880070
     28          6           0       -3.153346    4.113181    0.031270
     29          1           0       -3.630572    3.656827   -0.850724
     30          1           0       -3.607397    3.641598    0.917470
     31          6           0       -3.438803    5.630680    0.048066
     32          1           0       -3.014222    6.116689   -0.842258
     33          1           0       -2.991674    6.101097    0.935717
     34          6           0       -1.435241   -1.374216   -0.007911
     35          1           0        7.564785   -2.849056    0.082289
     36          1           0       -4.518160    5.833574    0.063379
     37          6           0       -2.453355   -2.388056   -0.004408
     38          6           0       -2.099739   -3.759621   -0.004963
     39          6           0       -3.096296   -4.745742   -0.002484
     40          6           0       -4.454810   -4.382047    0.000536
     41          6           0       -4.813572   -3.022165    0.001194
     42          6           0       -3.823627   -2.029512   -0.001229
     43          1           0       -5.225556   -5.149954    0.002305
     44          1           0       -5.863008   -2.735049    0.003482
     45          1           0       -1.047983   -4.036232   -0.007434
     46          1           0       -4.096739   -0.976873   -0.000904
     47          1           0       -2.813170   -5.796244   -0.003016
 ---------------------------------------------------------------------

 SCF Done:  E(UBMK) =  -852.507887986     A.U. after    2 cycles
