                         Program Version 5.0.4 -  RELEASE  -
|  1> ! B3LYP cc-pVDZ AUTOAUX
|  2> %pal nprocs 16 end
|  3> *XYZFile 0 2 opt.xyz
|  4> %EPRNMR
|  5>         GTENSOR   TRUE
|  6>         NUCLEI    = ALL H {SHIFT, AISO, ADIP, AORB}
|  7> END
|  8>
|  9>                          ****END OF INPUT****

CARTESIAN COORDINATES (ANGSTROEM)
---------------------------------
  C     12.367468   -0.026690   -0.004521
  C     11.143536   -0.068421   -0.003249
  C      5.470105   -0.000456   -0.000953
  C      9.724522   -0.088645   -0.002867
  C      8.990628   -1.335024   -0.006403
  C      7.570759   -1.236349   -0.005487
  C      6.897637   -0.011889   -0.001450
  C      7.634424    1.217416    0.002056
  C      9.026112    1.135702    0.001259
  H      6.974675   -2.149130   -0.008114
  H      9.619812    2.049654    0.003881
  C      9.646865   -2.583921   -0.010645
  H     10.739981   -2.573932   -0.011197
  C      8.960510   -3.917165   -0.014594
  H      8.287887   -4.000132    0.864048
  H      8.286468   -3.994223   -0.892681
  C      9.932017   -5.104805   -0.019413
  H     10.591664   -5.026394   -0.902868
  H     10.593459   -5.032110    0.863189
  C      9.223189   -6.460465   -0.023106
  H      8.579052   -6.573687   -0.912248
  H      8.580972   -6.579530    0.866660
  C      6.888617    2.535280    0.006628
  H      6.209492    2.550134   -0.866458
  H      6.212355    2.545704    0.882021
  C      7.733771    3.811741    0.008515
  H      8.398339    3.820953    0.891977
  H      8.396097    3.824967   -0.876584
  C      6.878227    5.084572    0.012531
  H      6.210709    5.076758   -0.869130
  H      6.212980    5.072748    0.895865
  C      7.710095    6.369491    0.014397
  H      8.360072    6.427193   -0.875761
  H      8.362497    6.423053    0.903036
  C      4.247577    0.004948    0.000113
  H      9.945336   -7.292652   -0.026626
  H      7.068970    7.265890    0.017359
  C      2.821946    0.006500    0.000494
  C      2.097893   -1.206838   -0.000235
  C      0.707780   -1.204952    0.000050
  C     -0.010741    0.009504    0.001091
  C      0.710352    1.222515    0.001864
  C      2.100373    1.221345    0.001582
  H     -3.729592    0.014614    0.001756
  H      0.163384    2.167010    0.002651
  H      2.643820   -2.151876   -0.001021
  H      2.647986    2.165427    0.002150
  H      0.158864   -2.148310   -0.000515
  C     13.789722    0.031477   -0.005118
  C     14.565302   -1.150711   -0.007168
  C     15.953740   -1.090712   -0.007603
  C     16.621353    0.152770   -0.006014
  C     15.849687    1.334610   -0.003972
  C     14.461312    1.275873   -0.003524
  H     20.336530    0.314151   -0.006977
  H     16.356949    2.301040   -0.002743
  H     14.060641   -2.118439   -0.008361
  H     13.874663    2.196192   -0.001939
  H     16.541337   -2.010509   -0.009127
  C     18.050568    0.214344   -0.006425
  C     19.265095    0.266906   -0.006700
  C     -1.441545    0.011220    0.001350
  C     -2.657087    0.013045    0.001570

 Total Charge           Charge          ....    0
 Multiplicity           Mult            ....    2
 Number of Electrons    NEL             ....  233
 Basis Dimension        Dim             ....  621

ORBITAL ENERGIES
----------------
                 SPIN UP ORBITALS
  NO   OCC          E(Eh)            E(eV)
   0   1.0000     -10.223863      -278.2055
   1   1.0000     -10.222800      -278.1765
   2   1.0000     -10.222210      -278.1605
   3   1.0000     -10.221276      -278.1351
   4   1.0000     -10.217901      -278.0432
   5   1.0000     -10.215729      -277.9841
   6   1.0000     -10.205906      -277.7168
   7   1.0000     -10.204406      -277.6760
   8   1.0000     -10.204340      -277.6742
   9   1.0000     -10.203714      -277.6572
  10   1.0000     -10.203612      -277.6544
  11   1.0000     -10.202836      -277.6333
  12   1.0000     -10.202708      -277.6298
  13   1.0000     -10.202329      -277.6195
  14   1.0000     -10.202171      -277.6152
  15   1.0000     -10.201885      -277.6074
  16   1.0000     -10.198283      -277.5094
  17   1.0000     -10.195985      -277.4469
  18   1.0000     -10.195761      -277.4408
  19   1.0000     -10.195158      -277.4244
  20   1.0000     -10.194363      -277.4027
  21   1.0000     -10.193973      -277.3921
  22   1.0000     -10.193456      -277.3780
  23   1.0000     -10.192971      -277.3648
  24   1.0000     -10.191946      -277.3369
  25   1.0000     -10.191153      -277.3154
  26   1.0000     -10.190906      -277.3087
  27   1.0000     -10.190051      -277.2854
  28   1.0000     -10.189578      -277.2725
  29   1.0000     -10.186631      -277.1923
  30   1.0000     -10.184443      -277.1328
  31   1.0000     -10.184153      -277.1249
  32   1.0000     -10.179296      -276.9927
  33   1.0000     -10.177583      -276.9461
  34   1.0000      -0.877869       -23.8880
  35   1.0000      -0.875347       -23.8194
  36   1.0000      -0.873888       -23.7797
  37   1.0000      -0.824136       -22.4259
  38   1.0000      -0.809050       -22.0154
  39   1.0000      -0.806165       -21.9369
  40   1.0000      -0.798929       -21.7400
  41   1.0000      -0.793144       -21.5825
  42   1.0000      -0.771002       -20.9800
  43   1.0000      -0.759724       -20.6732
  44   1.0000      -0.758696       -20.6452
  45   1.0000      -0.758396       -20.6370
  46   1.0000      -0.746277       -20.3072
  47   1.0000      -0.736975       -20.0541
  48   1.0000      -0.725977       -19.7548
  49   1.0000      -0.712941       -19.4001
  50   1.0000      -0.700417       -19.0593
  51   1.0000      -0.660757       -17.9801
  52   1.0000      -0.658105       -17.9079
  53   1.0000      -0.642344       -17.4791
  54   1.0000      -0.623387       -16.9632
  55   1.0000      -0.619258       -16.8509
  56   1.0000      -0.618611       -16.8333
  57   1.0000      -0.617685       -16.8081
  58   1.0000      -0.594916       -16.1885
  59   1.0000      -0.582818       -15.8593
  60   1.0000      -0.564751       -15.3677
  61   1.0000      -0.553278       -15.0555
  62   1.0000      -0.551988       -15.0204
  63   1.0000      -0.542790       -14.7701
  64   1.0000      -0.534275       -14.5384
  65   1.0000      -0.510465       -13.8905
  66   1.0000      -0.507338       -13.8054
  67   1.0000      -0.496983       -13.5236
  68   1.0000      -0.492467       -13.4007
  69   1.0000      -0.482323       -13.1247
  70   1.0000      -0.473382       -12.8814
  71   1.0000      -0.473234       -12.8773
  72   1.0000      -0.471550       -12.8315
  73   1.0000      -0.464978       -12.6527
  74   1.0000      -0.445680       -12.1276
  75   1.0000      -0.444087       -12.0842
  76   1.0000      -0.436316       -11.8728
  77   1.0000      -0.432697       -11.7743
  78   1.0000      -0.431224       -11.7342
  79   1.0000      -0.429805       -11.6956
  80   1.0000      -0.428850       -11.6696
  81   1.0000      -0.424745       -11.5579
  82   1.0000      -0.414385       -11.2760
  83   1.0000      -0.401929       -10.9370
  84   1.0000      -0.401782       -10.9330
  85   1.0000      -0.394759       -10.7420
  86   1.0000      -0.393809       -10.7161
  87   1.0000      -0.386291       -10.5115
  88   1.0000      -0.385275       -10.4839
  89   1.0000      -0.382112       -10.3978
  90   1.0000      -0.381600       -10.3839
  91   1.0000      -0.368069       -10.0157
  92   1.0000      -0.361214        -9.8291
  93   1.0000      -0.360252        -9.8030
  94   1.0000      -0.359113        -9.7720
  95   1.0000      -0.358219        -9.7476
  96   1.0000      -0.345065        -9.3897
  97   1.0000      -0.343147        -9.3375
  98   1.0000      -0.336077        -9.1451
  99   1.0000      -0.335336        -9.1249
 100   1.0000      -0.331356        -9.0167
 101   1.0000      -0.330321        -8.9885
 102   1.0000      -0.326968        -8.8973
 103   1.0000      -0.325719        -8.8633
 104   1.0000      -0.312125        -8.4934
 105   1.0000      -0.285662        -7.7733
 106   1.0000      -0.280204        -7.6247
 107   1.0000      -0.278865        -7.5883
 108   1.0000      -0.275155        -7.4874
 109   1.0000      -0.273425        -7.4403
 110   1.0000      -0.271738        -7.3944
 111   1.0000      -0.266772        -7.2592
 112   1.0000      -0.265966        -7.2373
 113   1.0000      -0.260233        -7.0813
 114   1.0000      -0.230397        -6.2694
 115   1.0000      -0.209792        -5.7087
 116   1.0000      -0.173921        -4.7326
 117   0.0000      -0.076337        -2.0772
 118   0.0000      -0.049428        -1.3450
 119   0.0000      -0.016635        -0.4527
 120   0.0000      -0.015477        -0.4211
 121   0.0000      -0.014426        -0.3925

                 SPIN DOWN ORBITALS
  NO   OCC          E(Eh)            E(eV)
   0   1.0000     -10.223696      -278.2009
   1   1.0000     -10.222970      -278.1812
   2   1.0000     -10.222599      -278.1710
   3   1.0000     -10.220826      -278.1228
   4   1.0000     -10.217320      -278.0274
   5   1.0000     -10.214560      -277.9523
   6   1.0000     -10.204376      -277.6752
   7   1.0000     -10.204330      -277.6739
   8   1.0000     -10.204303      -277.6732
   9   1.0000     -10.203822      -277.6601
  10   1.0000     -10.203726      -277.6575
  11   1.0000     -10.202907      -277.6352
  12   1.0000     -10.202823      -277.6329
  13   1.0000     -10.202544      -277.6253
  14   1.0000     -10.202074      -277.6126
  15   1.0000     -10.201873      -277.6071
  16   1.0000     -10.195718      -277.4396
  17   1.0000     -10.195178      -277.4249
  18   1.0000     -10.195146      -277.4240
  19   1.0000     -10.195022      -277.4206
  20   1.0000     -10.194488      -277.4061
  21   1.0000     -10.194083      -277.3951
  22   1.0000     -10.193149      -277.3697
  23   1.0000     -10.191822      -277.3336
  24   1.0000     -10.191408      -277.3223
  25   1.0000     -10.190988      -277.3109
  26   1.0000     -10.190250      -277.2908
  27   1.0000     -10.189349      -277.2663
  28   1.0000     -10.186593      -277.1913
  29   1.0000     -10.186148      -277.1792
  30   1.0000     -10.184440      -277.1327
  31   1.0000     -10.184154      -277.1249
  32   1.0000     -10.179304      -276.9929
  33   1.0000     -10.177584      -276.9461
  34   1.0000      -0.876344       -23.8465
  35   1.0000      -0.874527       -23.7971
  36   1.0000      -0.872646       -23.7459
  37   1.0000      -0.819814       -22.3083
  38   1.0000      -0.807800       -21.9814
  39   1.0000      -0.805394       -21.9159
  40   1.0000      -0.796937       -21.6858
  41   1.0000      -0.792096       -21.5540
  42   1.0000      -0.769005       -20.9257
  43   1.0000      -0.759858       -20.6768
  44   1.0000      -0.758265       -20.6335
  45   1.0000      -0.758064       -20.6280
  46   1.0000      -0.745736       -20.2925
  47   1.0000      -0.733781       -19.9672
  48   1.0000      -0.724784       -19.7224
  49   1.0000      -0.711962       -19.3735
  50   1.0000      -0.698226       -18.9997
  51   1.0000      -0.659249       -17.9391
  52   1.0000      -0.655661       -17.8414
  53   1.0000      -0.642074       -17.4717
  54   1.0000      -0.622099       -16.9282
  55   1.0000      -0.619343       -16.8532
  56   1.0000      -0.617543       -16.8042
  57   1.0000      -0.613453       -16.6929
  58   1.0000      -0.594015       -16.1640
  59   1.0000      -0.581253       -15.8167
  60   1.0000      -0.562038       -15.2938
  61   1.0000      -0.553358       -15.0576
  62   1.0000      -0.551738       -15.0135
  63   1.0000      -0.542182       -14.7535
  64   1.0000      -0.533409       -14.5148
  65   1.0000      -0.507641       -13.8136
  66   1.0000      -0.506288       -13.7768
  67   1.0000      -0.496634       -13.5141
  68   1.0000      -0.491694       -13.3797
  69   1.0000      -0.480958       -13.0875
  70   1.0000      -0.473247       -12.8777
  71   1.0000      -0.472524       -12.8580
  72   1.0000      -0.471320       -12.8253
  73   1.0000      -0.461523       -12.5587
  74   1.0000      -0.445646       -12.1267
  75   1.0000      -0.443884       -12.0787
  76   1.0000      -0.434274       -11.8172
  77   1.0000      -0.431352       -11.7377
  78   1.0000      -0.431242       -11.7347
  79   1.0000      -0.429696       -11.6926
  80   1.0000      -0.427654       -11.6371
  81   1.0000      -0.422145       -11.4871
  82   1.0000      -0.413906       -11.2629
  83   1.0000      -0.400904       -10.9091
  84   1.0000      -0.396336       -10.7849
  85   1.0000      -0.394254       -10.7282
  86   1.0000      -0.391101       -10.6424
  87   1.0000      -0.386394       -10.5143
  88   1.0000      -0.384866       -10.4727
  89   1.0000      -0.379390       -10.3237
  90   1.0000      -0.378635       -10.3032
  91   1.0000      -0.366948        -9.9852
  92   1.0000      -0.361140        -9.8271
  93   1.0000      -0.359795        -9.7905
  94   1.0000      -0.358563        -9.7570
  95   1.0000      -0.355213        -9.6658
  96   1.0000      -0.344643        -9.3782
  97   1.0000      -0.340921        -9.2769
  98   1.0000      -0.334837        -9.1114
  99   1.0000      -0.333974        -9.0879
 100   1.0000      -0.329983        -8.9793
 101   1.0000      -0.329815        -8.9747
 102   1.0000      -0.326216        -8.8768
 103   1.0000      -0.325370        -8.8538
 104   1.0000      -0.310052        -8.4370
 105   1.0000      -0.282399        -7.6845
 106   1.0000      -0.280236        -7.6256
 107   1.0000      -0.278760        -7.5855
 108   1.0000      -0.273284        -7.4364
 109   1.0000      -0.271326        -7.3832
 110   1.0000      -0.267156        -7.2697
 111   1.0000      -0.265021        -7.2116
 112   1.0000      -0.262327        -7.1383
 113   1.0000      -0.257646        -7.0109
 114   1.0000      -0.228994        -6.2312
 115   1.0000      -0.203026        -5.5246
 116   0.0000      -0.091499        -2.4898
 117   0.0000      -0.067673        -1.8415
 118   0.0000      -0.047463        -1.2915
 119   0.0000      -0.016961        -0.4615
 120   0.0000      -0.014686        -0.3996

MULLIKEN ATOMIC CHARGES AND SPIN POPULATIONS
--------------------------------------------
   0 C :    0.184298    0.099737
   1 C :    0.250342   -0.066995
   2 C :    0.239166    0.031393
   3 C :   -0.188812    0.221608
   4 C :    0.071557   -0.168403
   5 C :   -0.027400    0.220946
   6 C :   -0.152494   -0.105765
   7 C :   -0.086465    0.231100
   8 C :    0.009075   -0.117071
   9 H :   -0.052345   -0.009172
  10 H :   -0.053745    0.004240
  11 C :   -0.099314    0.693756
  12 H :   -0.025908   -0.030186
  13 C :    0.033895   -0.047564
  14 H :    0.029961    0.031129
  15 H :    0.029981    0.031109
  16 C :   -0.039795    0.002243
  17 H :    0.012918    0.000456
  18 H :    0.012912    0.000455
  19 C :    0.005969   -0.000173
  20 H :    0.018056    0.000151
  21 H :    0.018062    0.000151
  22 C :    0.038741   -0.018386
  23 H :    0.032483    0.009840
  24 H :    0.032503    0.009871
  25 C :   -0.034330    0.000852
  26 H :    0.017183    0.000168
  27 H :    0.017130    0.000171
  28 C :   -0.025317    0.000026
  29 H :    0.005864    0.000052
  30 H :    0.005875    0.000052
  31 C :    0.003217   -0.000079
  32 H :    0.017686    0.000023
  33 H :    0.017676    0.000023
  34 C :    0.169857   -0.046828
  35 H :    0.014294   -0.000199
  36 H :    0.013418   -0.000005
  37 C :   -0.242714    0.011228
  38 C :    0.035941   -0.010720
  39 C :    0.047272    0.005870
  40 C :   -0.101044   -0.011289
  41 C :    0.046932    0.005863
  42 C :    0.033999   -0.010693
  43 H :   -0.025197    0.000251
  44 H :   -0.031786   -0.000218
  45 H :   -0.035342    0.000440
  46 H :   -0.034269    0.000416
  47 H :   -0.031635   -0.000218
  48 C :   -0.246936   -0.025673
  49 C :    0.030446    0.026906
  50 C :    0.046812   -0.015366
  51 C :   -0.101381    0.029564
  52 C :    0.047453   -0.015363
  53 C :    0.035929    0.027003
  54 H :   -0.025792   -0.000719
  55 H :   -0.032269    0.000605
  56 H :   -0.034199   -0.001104
  57 H :   -0.036104   -0.001163
  58 H :   -0.032680    0.000605
  59 C :    0.647176   -0.009930
  60 C :   -0.562528    0.018040
  61 C :    0.647486    0.003523
  62 C :   -0.561765   -0.006582
Sum of atomic charges         :   -0.0000000

LOEWDIN ATOMIC CHARGES AND SPIN POPULATIONS
-------------------------------------------
   0 C :   -0.023559    0.072480
   1 C :   -0.012695   -0.030498
   2 C :   -0.011272    0.016725
   3 C :   -0.039325    0.158682
   4 C :   -0.039395   -0.071724
   5 C :    0.011223    0.166813
   6 C :   -0.052629   -0.058662
   7 C :   -0.004663    0.170549
   8 C :   -0.007309   -0.063913
   9 H :    0.028684    0.000889
  10 H :    0.030078   -0.000454
  11 C :    0.014035    0.569127
  12 H :    0.021505    0.003346
  13 C :   -0.054451    0.005394
  14 H :    0.034796    0.024292
  15 H :    0.034795    0.024275
  16 C :   -0.046071    0.001140
  17 H :    0.025743    0.000290
  18 H :    0.025736    0.000289
  19 C :   -0.067491   -0.000043
  20 H :    0.025812    0.000243
  21 H :    0.025811    0.000244
  22 C :   -0.035594    0.002148
  23 H :    0.039019    0.007742
  24 H :    0.039050    0.007766
  25 C :   -0.043429    0.000150
  26 H :    0.024700    0.000053
  27 H :    0.024704    0.000054
  28 C :   -0.047216    0.000018
  29 H :    0.023980    0.000088
  30 H :    0.023984    0.000088
  31 C :   -0.067456   -0.000038
  32 H :    0.025434    0.000016
  33 H :    0.025431    0.000016
  34 C :   -0.023681   -0.033369
  35 H :    0.028699   -0.000110
  36 H :    0.027816   -0.000007
  37 C :   -0.049189    0.005295
  38 C :    0.000542   -0.008214
  39 C :    0.001401    0.003600
  40 C :   -0.051954   -0.008305
  41 C :    0.001285    0.003595
  42 C :   -0.000386   -0.008200
  43 H :    0.024046   -0.000018
  44 H :    0.034163    0.000022
  45 H :    0.032992   -0.000019
  46 H :    0.032937   -0.000024
  47 H :    0.034229    0.000022
  48 C :   -0.049225   -0.012159
  49 C :   -0.001375    0.020527
  50 C :    0.000899   -0.009397
  51 C :   -0.052907    0.021603
  52 C :    0.001036   -0.009382
  53 C :   -0.000017    0.020597
  54 H :    0.023749    0.000032
  55 H :    0.034010   -0.000042
  56 H :    0.032319    0.000027
  57 H :    0.032707    0.000025
  58 H :    0.033945   -0.000043
  59 C :   -0.006998   -0.004213
  60 C :   -0.043692    0.014425
  61 C :   -0.006899    0.001461
  62 C :   -0.042421   -0.005317

  Mayer bond orders larger than 0.100000
B(  0-C ,  1-C ) :   1.6759 B(  0-C ,  3-C ) :  -0.1100 B(  0-C , 48-C ) :   0.9102
B(  1-C ,  3-C ) :   0.8820 B(  1-C , 48-C ) :  -0.1792 B(  2-C ,  6-C ) :   0.8816
B(  2-C , 34-C ) :   1.7194 B(  2-C , 37-C ) :  -0.1721 B(  3-C ,  4-C ) :   1.2775
B(  3-C ,  8-C ) :   1.3959 B(  3-C , 48-C ) :   0.1084 B(  4-C ,  5-C ) :   1.2905
B(  4-C , 11-C ) :   1.3827 B(  5-C ,  6-C ) :   1.4480 B(  5-C ,  9-H ) :   0.9176
B(  6-C ,  7-C ) :   1.3418 B(  6-C , 34-C ) :  -0.1078 B(  6-C , 37-C ) :   0.1001
B(  7-C ,  8-C ) :   1.4311 B(  7-C , 22-C ) :   1.0956 B(  8-C , 10-H ) :   0.9200
B( 11-C , 12-H ) :   0.8985 B( 11-C , 13-C ) :   1.0844 B( 13-C , 14-H ) :   0.9113
B( 13-C , 15-H ) :   0.9113 B( 13-C , 16-C ) :   1.0712 B( 16-C , 17-H ) :   0.9438
B( 16-C , 18-H ) :   0.9438 B( 16-C , 19-C ) :   1.1067 B( 19-C , 20-H ) :   0.9653
B( 19-C , 21-H ) :   0.9653 B( 19-C , 35-H ) :   0.9607 B( 22-C , 23-H ) :   0.8956
B( 22-C , 24-H ) :   0.8956 B( 22-C , 25-C ) :   1.1046 B( 25-C , 26-H ) :   0.9292
B( 25-C , 27-H ) :   0.9293 B( 25-C , 28-C ) :   1.0746 B( 28-C , 29-H ) :   0.9410
B( 28-C , 30-H ) :   0.9410 B( 28-C , 31-C ) :   1.1064 B( 31-C , 32-H ) :   0.9662
B( 31-C , 33-H ) :   0.9662 B( 31-C , 36-H ) :   0.9616 B( 34-C , 37-C ) :   0.9070
B( 37-C , 38-C ) :   1.4253 B( 37-C , 42-C ) :   1.4209 B( 38-C , 39-C ) :   1.4709
B( 38-C , 45-H ) :   0.9383 B( 39-C , 40-C ) :   1.4100 B( 39-C , 47-H ) :   0.9379
B( 40-C , 41-C ) :   1.4099 B( 40-C , 61-C ) :   0.9044 B( 41-C , 42-C ) :   1.4711
B( 41-C , 44-H ) :   0.9379 B( 42-C , 46-H ) :   0.9386 B( 43-H , 62-C ) :   1.1119
B( 48-C , 49-C ) :   1.4186 B( 48-C , 53-C ) :   1.4204 B( 49-C , 50-C ) :   1.4731
B( 49-C , 56-H ) :   0.9386 B( 50-C , 51-C ) :   1.4075 B( 50-C , 58-H ) :   0.9379
B( 51-C , 52-C ) :   1.4080 B( 51-C , 59-C ) :   0.9056 B( 52-C , 53-C ) :   1.4739
B( 52-C , 55-H ) :   0.9377 B( 53-C , 57-H ) :   0.9380 B( 54-H , 60-C ) :   1.1119
B( 59-C , 60-C ) :   2.1536 B( 61-C , 62-C ) :   2.1541

FINAL SINGLE POINT ENERGY     -1312.049093904684

DIPOLE MOMENT
-------------
                                X             Y             Z
Electronic contribution:      0.39472      -1.96864       0.00380
Nuclear contribution   :     -0.55927       1.92253      -0.00390
                        -----------------------------------------
Total Dipole Moment    :     -0.16455      -0.04611      -0.00010
                        -----------------------------------------
Magnitude (a.u.)       :      0.17089
Magnitude (Debye)      :      0.43437

Rotational constants in cm-1:     0.005920     0.001229     0.001019
Rotational constants in MHz :   177.478005    36.835670    30.545032

CHEMICAL SHIELDING SUMMARY (ppm)  --  Orbital contribution
----------------------------------------------------------

  Nucleus  Element    Isotropic     Anisotropy
  -------  -------  ------------   ------------
      9       H           24.407         11.745
     10       H           24.458         12.672
     12       H           25.252         11.467
     14       H           28.938          4.404
     15       H           28.938          4.406
     17       H           29.626          6.584
     18       H           29.626          6.587
     20       H           30.293          7.871
     21       H           30.293          7.871
     23       H           28.677          5.878
     24       H           28.679          5.855
     26       H           29.793          4.888
     27       H           29.795          4.880
     29       H           29.857          6.310
     30       H           29.857          6.306
     32       H           30.275          7.874
     33       H           30.275          7.875
     35       H           30.060         10.119
     36       H           30.071         10.325
     43       H           28.334         10.784
     44       H           24.067          7.228
     45       H           24.121          7.670
     46       H           24.112          7.800
     47       H           24.056          6.918
     54       H           28.336         10.742
     55       H           24.077          6.958
     56       H           24.128          7.624
     57       H           24.121          7.637
     58       H           24.088          7.098

                             ****ORCA TERMINATED NORMALLY****
TOTAL RUN TIME: 0 days 3 hours 47 minutes 4 seconds 210 msec
