                         Program Version 5.0.4 -  RELEASE  -
|  1> ! B3LYP cc-pVDZ AUTOAUX
|  2> %pal nprocs 16 end
|  3> *XYZFile 0 2 opt_cc-pVDZ.xyz
|  4> %EPRNMR
|  5>         GTENSOR   TRUE
|  6>         NUCLEI    = ALL H {SHIFT, AISO, ADIP, AORB}
|  7>         ORI       CenterOfElCharge
|  8> END
|  9>
| 10>                          ****END OF INPUT****

CARTESIAN COORDINATES (ANGSTROEM)
---------------------------------
  C     12.367466   -0.027254   -0.004271
  C     11.143539   -0.069299   -0.003040
  C      5.470131   -0.000662   -0.000815
  C      9.724526   -0.089437   -0.002678
  C      8.990499   -1.335723   -0.006213
  C      7.570641   -1.236827   -0.005284
  C      6.897657   -0.012283   -0.001347
  C      7.634582    1.216940    0.002004
  C      9.026256    1.135002    0.001260
  H      6.974283   -2.149427   -0.007828
  H      9.620187    2.048805    0.003763
  C      9.646544   -2.584699   -0.010513
  H     10.739691   -2.574825   -0.011224
  C      8.960010   -3.917865   -0.014285
  H      8.287727   -4.000766    0.864628
  H      8.285669   -3.994755   -0.892161
  C      9.931394   -5.105586   -0.019539
  H     10.590733   -5.027211   -0.903247
  H     10.593189   -5.033054    0.862831
  C      9.222319   -6.461124   -0.023062
  H      8.577847   -6.574132   -0.911994
  H      8.580458   -6.580123    0.866977
  C      6.889022    2.534941    0.006282
  H      6.210012    2.549779   -0.866924
  H      6.212620    2.545607    0.881592
  C      7.734368    3.811262    0.008082
  H      8.398869    3.820544    0.891619
  H      8.396779    3.824334   -0.876981
  C      6.878874    5.084153    0.011857
  H      6.211424    5.076210   -0.869877
  H      6.213550    5.072435    0.895157
  C      7.710870    6.368993    0.013614
  H      8.360868    6.426451   -0.876552
  H      8.363212    6.422506    0.902310
  C      4.247600    0.004800    0.000267
  H      9.944286   -7.293461   -0.026932
  H      7.069825    7.265432    0.016449
  C      2.821974    0.006564    0.000675
  C      2.097717   -1.206649   -0.001354
  C      0.707606   -1.204525   -0.001048
  C     -0.010713    0.010051    0.001310
  C      0.710586    1.222936    0.003369
  C      2.100604    1.221532    0.003068
  H     -3.729564    0.015721    0.002046
  H      0.163795    2.167534    0.005200
  H      2.643471   -2.151786   -0.003192
  H      2.648407    2.165507    0.004660
  H      0.158546   -2.147798   -0.002644
  C     13.789690    0.031504   -0.004822
  C     14.565842   -1.150310   -0.007823
  C     15.954243   -1.089616   -0.008291
  C     16.621265    0.154185   -0.005806
  C     15.849032    1.335648   -0.002864
  C     14.460686    1.276220   -0.002390
  H     20.336370    0.317181   -0.006913
  H     16.355741    2.302369   -0.000948
  H     14.061634   -2.118278   -0.009746
  H     13.873587    2.196248   -0.000104
  H     16.542333   -2.009094   -0.010582
  C     18.050447    0.216424   -0.006272
  C     19.264950    0.269530   -0.006594
  C     -1.441514    0.012000    0.001596
  C     -2.657054    0.014002    0.001839

 Total Charge           Charge          ....    0
 Multiplicity           Mult            ....    2
 Number of Electrons    NEL             ....  233
 Basis Dimension        Dim             ....  621

ORBITAL ENERGIES
----------------
                 SPIN UP ORBITALS
  NO   OCC          E(Eh)            E(eV)
   0   1.0000     -10.223937      -278.2075
   1   1.0000     -10.222782      -278.1760
   2   1.0000     -10.222218      -278.1607
   3   1.0000     -10.221287      -278.1354
   4   1.0000     -10.217851      -278.0419
   5   1.0000     -10.215761      -277.9850
   6   1.0000     -10.205899      -277.7166
   7   1.0000     -10.204411      -277.6761
   8   1.0000     -10.204341      -277.6742
   9   1.0000     -10.203750      -277.6582
  10   1.0000     -10.203642      -277.6552
  11   1.0000     -10.202861      -277.6340
  12   1.0000     -10.202704      -277.6297
  13   1.0000     -10.202356      -277.6202
  14   1.0000     -10.202172      -277.6152
  15   1.0000     -10.201910      -277.6081
  16   1.0000     -10.198344      -277.5110
  17   1.0000     -10.196024      -277.4479
  18   1.0000     -10.195774      -277.4411
  19   1.0000     -10.195211      -277.4258
  20   1.0000     -10.194380      -277.4032
  21   1.0000     -10.193980      -277.3923
  22   1.0000     -10.193385      -277.3761
  23   1.0000     -10.193035      -277.3666
  24   1.0000     -10.191945      -277.3369
  25   1.0000     -10.191166      -277.3157
  26   1.0000     -10.190858      -277.3073
  27   1.0000     -10.190048      -277.2853
  28   1.0000     -10.189573      -277.2724
  29   1.0000     -10.186625      -277.1922
  30   1.0000     -10.184431      -277.1325
  31   1.0000     -10.184141      -277.1246
  32   1.0000     -10.179278      -276.9922
  33   1.0000     -10.177561      -276.9455
  34   1.0000      -0.877875       -23.8882
  35   1.0000      -0.875363       -23.8198
  36   1.0000      -0.873898       -23.7800
  37   1.0000      -0.824143       -22.4261
  38   1.0000      -0.809060       -22.0156
  39   1.0000      -0.806179       -21.9372
  40   1.0000      -0.798927       -21.7399
  41   1.0000      -0.793149       -21.5827
  42   1.0000      -0.770999       -20.9799
  43   1.0000      -0.759740       -20.6736
  44   1.0000      -0.758706       -20.6454
  45   1.0000      -0.758404       -20.6372
  46   1.0000      -0.746280       -20.3073
  47   1.0000      -0.736973       -20.0541
  48   1.0000      -0.725982       -19.7550
  49   1.0000      -0.712947       -19.4003
  50   1.0000      -0.700415       -19.0593
  51   1.0000      -0.660760       -17.9802
  52   1.0000      -0.658108       -17.9080
  53   1.0000      -0.642355       -17.4794
  54   1.0000      -0.623388       -16.9632
  55   1.0000      -0.619273       -16.8513
  56   1.0000      -0.618614       -16.8333
  57   1.0000      -0.617691       -16.8082
  58   1.0000      -0.594913       -16.1884
  59   1.0000      -0.582811       -15.8591
  60   1.0000      -0.564750       -15.3676
  61   1.0000      -0.553280       -15.0555
  62   1.0000      -0.551992       -15.0205
  63   1.0000      -0.542800       -14.7703
  64   1.0000      -0.534283       -14.5386
  65   1.0000      -0.510465       -13.8905
  66   1.0000      -0.507333       -13.8052
  67   1.0000      -0.496984       -13.5236
  68   1.0000      -0.492472       -13.4009
  69   1.0000      -0.482322       -13.1247
  70   1.0000      -0.473375       -12.8812
  71   1.0000      -0.473251       -12.8778
  72   1.0000      -0.471559       -12.8318
  73   1.0000      -0.464984       -12.6529
  74   1.0000      -0.445692       -12.1279
  75   1.0000      -0.444092       -12.0844
  76   1.0000      -0.436323       -11.8730
  77   1.0000      -0.432690       -11.7741
  78   1.0000      -0.431236       -11.7345
  79   1.0000      -0.429810       -11.6957
  80   1.0000      -0.428852       -11.6696
  81   1.0000      -0.424742       -11.5578
  82   1.0000      -0.414379       -11.2758
  83   1.0000      -0.401926       -10.9370
  84   1.0000      -0.401787       -10.9332
  85   1.0000      -0.394777       -10.7424
  86   1.0000      -0.393817       -10.7163
  87   1.0000      -0.386308       -10.5120
  88   1.0000      -0.385283       -10.4841
  89   1.0000      -0.382114       -10.3979
  90   1.0000      -0.381595       -10.3837
  91   1.0000      -0.368062       -10.0155
  92   1.0000      -0.361224        -9.8294
  93   1.0000      -0.360255        -9.8030
  94   1.0000      -0.359115        -9.7720
  95   1.0000      -0.358214        -9.7475
  96   1.0000      -0.345076        -9.3900
  97   1.0000      -0.343143        -9.3374
  98   1.0000      -0.336084        -9.1453
  99   1.0000      -0.335341        -9.1251
 100   1.0000      -0.331361        -9.0168
 101   1.0000      -0.330315        -8.9883
 102   1.0000      -0.326960        -8.8970
 103   1.0000      -0.325715        -8.8632
 104   1.0000      -0.312132        -8.4936
 105   1.0000      -0.285673        -7.7735
 106   1.0000      -0.280192        -7.6244
 107   1.0000      -0.278867        -7.5884
 108   1.0000      -0.275153        -7.4873
 109   1.0000      -0.273460        -7.4412
 110   1.0000      -0.271736        -7.3943
 111   1.0000      -0.266786        -7.2596
 112   1.0000      -0.265974        -7.2375
 113   1.0000      -0.260236        -7.0814
 114   1.0000      -0.230402        -6.2696
 115   1.0000      -0.209805        -5.7091
 116   1.0000      -0.173931        -4.7329
 117   0.0000      -0.076347        -2.0775
 118   0.0000      -0.049434        -1.3452
 119   0.0000      -0.016648        -0.4530
 120   0.0000      -0.015483        -0.4213
 121   0.0000      -0.014430        -0.3927

                 SPIN DOWN ORBITALS
  NO   OCC          E(Eh)            E(eV)
   0   1.0000     -10.223765      -278.2028
   1   1.0000     -10.222957      -278.1808
   2   1.0000     -10.222610      -278.1714
   3   1.0000     -10.220834      -278.1230
   4   1.0000     -10.217357      -278.0284
   5   1.0000     -10.214507      -277.9509
   6   1.0000     -10.204387      -277.6755
   7   1.0000     -10.204358      -277.6747
   8   1.0000     -10.204308      -277.6733
   9   1.0000     -10.203853      -277.6609
  10   1.0000     -10.203753      -277.6582
  11   1.0000     -10.202929      -277.6358
  12   1.0000     -10.202816      -277.6327
  13   1.0000     -10.202533      -277.6250
  14   1.0000     -10.202104      -277.6134
  15   1.0000     -10.201877      -277.6072
  16   1.0000     -10.195728      -277.4399
  17   1.0000     -10.195234      -277.4264
  18   1.0000     -10.195207      -277.4257
  19   1.0000     -10.194955      -277.4188
  20   1.0000     -10.194507      -277.4066
  21   1.0000     -10.194079      -277.3950
  22   1.0000     -10.193204      -277.3712
  23   1.0000     -10.191835      -277.3339
  24   1.0000     -10.191417      -277.3226
  25   1.0000     -10.190943      -277.3097
  26   1.0000     -10.190248      -277.2907
  27   1.0000     -10.189343      -277.2661
  28   1.0000     -10.186587      -277.1911
  29   1.0000     -10.186187      -277.1802
  30   1.0000     -10.184428      -277.1324
  31   1.0000     -10.184141      -277.1246
  32   1.0000     -10.179286      -276.9925
  33   1.0000     -10.177563      -276.9456
  34   1.0000      -0.876362       -23.8470
  35   1.0000      -0.874535       -23.7973
  36   1.0000      -0.872651       -23.7460
  37   1.0000      -0.819820       -22.3084
  38   1.0000      -0.807814       -21.9817
  39   1.0000      -0.805404       -21.9162
  40   1.0000      -0.796937       -21.6857
  41   1.0000      -0.792099       -21.5541
  42   1.0000      -0.769002       -20.9256
  43   1.0000      -0.759874       -20.6772
  44   1.0000      -0.758276       -20.6337
  45   1.0000      -0.758071       -20.6282
  46   1.0000      -0.745739       -20.2926
  47   1.0000      -0.733780       -19.9672
  48   1.0000      -0.724785       -19.7224
  49   1.0000      -0.711970       -19.3737
  50   1.0000      -0.698225       -18.9997
  51   1.0000      -0.659254       -17.9392
  52   1.0000      -0.655660       -17.8414
  53   1.0000      -0.642086       -17.4721
  54   1.0000      -0.622102       -16.9282
  55   1.0000      -0.619358       -16.8536
  56   1.0000      -0.617548       -16.8043
  57   1.0000      -0.613455       -16.6929
  58   1.0000      -0.594012       -16.1639
  59   1.0000      -0.581246       -15.8165
  60   1.0000      -0.562038       -15.2938
  61   1.0000      -0.553361       -15.0577
  62   1.0000      -0.551741       -15.0136
  63   1.0000      -0.542192       -14.7538
  64   1.0000      -0.533417       -14.5150
  65   1.0000      -0.507645       -13.8137
  66   1.0000      -0.506280       -13.7766
  67   1.0000      -0.496637       -13.5142
  68   1.0000      -0.491698       -13.3798
  69   1.0000      -0.480957       -13.0875
  70   1.0000      -0.473265       -12.8782
  71   1.0000      -0.472516       -12.8578
  72   1.0000      -0.471329       -12.8255
  73   1.0000      -0.461529       -12.5588
  74   1.0000      -0.445659       -12.1270
  75   1.0000      -0.443888       -12.0788
  76   1.0000      -0.434275       -11.8172
  77   1.0000      -0.431352       -11.7377
  78   1.0000      -0.431253       -11.7350
  79   1.0000      -0.429701       -11.6928
  80   1.0000      -0.427655       -11.6371
  81   1.0000      -0.422139       -11.4870
  82   1.0000      -0.413900       -11.2628
  83   1.0000      -0.400901       -10.9091
  84   1.0000      -0.396350       -10.7852
  85   1.0000      -0.394265       -10.7285
  86   1.0000      -0.391109       -10.6426
  87   1.0000      -0.386412       -10.5148
  88   1.0000      -0.384873       -10.4729
  89   1.0000      -0.379385       -10.3236
  90   1.0000      -0.378637       -10.3032
  91   1.0000      -0.366941        -9.9850
  92   1.0000      -0.361152        -9.8275
  93   1.0000      -0.359798        -9.7906
  94   1.0000      -0.358562        -9.7570
  95   1.0000      -0.355206        -9.6657
  96   1.0000      -0.344655        -9.3785
  97   1.0000      -0.340918        -9.2768
  98   1.0000      -0.334843        -9.1115
  99   1.0000      -0.333980        -9.0881
 100   1.0000      -0.329976        -8.9791
 101   1.0000      -0.329820        -8.9749
 102   1.0000      -0.326208        -8.8766
 103   1.0000      -0.325366        -8.8537
 104   1.0000      -0.310059        -8.4371
 105   1.0000      -0.282407        -7.6847
 106   1.0000      -0.280225        -7.6253
 107   1.0000      -0.278762        -7.5855
 108   1.0000      -0.273319        -7.4374
 109   1.0000      -0.271325        -7.3831
 110   1.0000      -0.267171        -7.2701
 111   1.0000      -0.265028        -7.2118
 112   1.0000      -0.262327        -7.1383
 113   1.0000      -0.257647        -7.0109
 114   1.0000      -0.228998        -6.2313
 115   1.0000      -0.203040        -5.5250
 116   0.0000      -0.091501        -2.4899
 117   0.0000      -0.067691        -1.8420
 118   0.0000      -0.047467        -1.2917
 119   0.0000      -0.016976        -0.4619
 120   0.0000      -0.014692        -0.3998

MULLIKEN ATOMIC CHARGES AND SPIN POPULATIONS
--------------------------------------------
   0 C :    0.184424    0.100044
   1 C :    0.250201   -0.067283
   2 C :    0.238941    0.032058
   3 C :   -0.188877    0.221886
   4 C :    0.071640   -0.168591
   5 C :   -0.027388    0.221204
   6 C :   -0.152542   -0.106139
   7 C :   -0.086412    0.231382
   8 C :    0.008985   -0.117287
   9 H :   -0.052353   -0.009200
  10 H :   -0.053741    0.004257
  11 C :   -0.099343    0.693677
  12 H :   -0.025904   -0.030186
  13 C :    0.033930   -0.047563
  14 H :    0.029966    0.031125
  15 H :    0.029984    0.031098
  16 C :   -0.039808    0.002246
  17 H :    0.012921    0.000457
  18 H :    0.012916    0.000455
  19 C :    0.005964   -0.000174
  20 H :    0.018058    0.000151
  21 H :    0.018068    0.000151
  22 C :    0.038709   -0.018428
  23 H :    0.032495    0.009850
  24 H :    0.032506    0.009880
  25 C :   -0.034333    0.000855
  26 H :    0.017184    0.000168
  27 H :    0.017138    0.000171
  28 C :   -0.025333    0.000026
  29 H :    0.005869    0.000052
  30 H :    0.005874    0.000052
  31 C :    0.003222   -0.000080
  32 H :    0.017694    0.000023
  33 H :    0.017682    0.000023
  34 C :    0.170005   -0.047406
  35 H :    0.014291   -0.000199
  36 H :    0.013421   -0.000005
  37 C :   -0.242588    0.011551
  38 C :    0.035970   -0.011028
  39 C :    0.047239    0.006157
  40 C :   -0.101047   -0.011588
  41 C :    0.046917    0.006149
  42 C :    0.034006   -0.011001
  43 H :   -0.025203    0.000267
  44 H :   -0.031786   -0.000240
  45 H :   -0.035345    0.000464
  46 H :   -0.034272    0.000440
  47 H :   -0.031634   -0.000240
  48 C :   -0.246893   -0.025843
  49 C :    0.030473    0.027052
  50 C :    0.046817   -0.015503
  51 C :   -0.101365    0.029719
  52 C :    0.047433   -0.015499
  53 C :    0.035929    0.027148
  54 H :   -0.025792   -0.000727
  55 H :   -0.032271    0.000615
  56 H :   -0.034210   -0.001117
  57 H :   -0.036110   -0.001175
  58 H :   -0.032683    0.000615
  59 C :    0.647249   -0.010065
  60 C :   -0.562612    0.018185
  61 C :    0.647636    0.003769
  62 C :   -0.561913   -0.006858
Sum of atomic charges         :   -0.0000000

LOEWDIN ATOMIC CHARGES AND SPIN POPULATIONS
-------------------------------------------
   0 C :   -0.023488    0.072648
   1 C :   -0.012769   -0.030641
   2 C :   -0.011331    0.017065
   3 C :   -0.039364    0.158825
   4 C :   -0.039417   -0.071811
   5 C :    0.011254    0.166962
   6 C :   -0.052634   -0.058809
   7 C :   -0.004673    0.170713
   8 C :   -0.007328   -0.064036
   9 H :    0.028684    0.000879
  10 H :    0.030080   -0.000450
  11 C :    0.014034    0.569047
  12 H :    0.021512    0.003339
  13 C :   -0.054441    0.005388
  14 H :    0.034803    0.024290
  15 H :    0.034794    0.024266
  16 C :   -0.046072    0.001141
  17 H :    0.025746    0.000290
  18 H :    0.025738    0.000289
  19 C :   -0.067493   -0.000043
  20 H :    0.025813    0.000243
  21 H :    0.025813    0.000244
  22 C :   -0.035606    0.002140
  23 H :    0.039029    0.007749
  24 H :    0.039049    0.007772
  25 C :   -0.043428    0.000151
  26 H :    0.024701    0.000053
  27 H :    0.024707    0.000054
  28 C :   -0.047211    0.000018
  29 H :    0.023980    0.000088
  30 H :    0.023981    0.000088
  31 C :   -0.067457   -0.000038
  32 H :    0.025438    0.000016
  33 H :    0.025434    0.000016
  34 C :   -0.023609   -0.033695
  35 H :    0.028695   -0.000110
  36 H :    0.027812   -0.000007
  37 C :   -0.049151    0.005473
  38 C :    0.000550   -0.008414
  39 C :    0.001386    0.003784
  40 C :   -0.051959   -0.008480
  41 C :    0.001270    0.003779
  42 C :   -0.000370   -0.008401
  43 H :    0.024045   -0.000014
  44 H :    0.034163    0.000018
  45 H :    0.032990   -0.000014
  46 H :    0.032938   -0.000019
  47 H :    0.034229    0.000017
  48 C :   -0.049208   -0.012241
  49 C :   -0.001366    0.020623
  50 C :    0.000896   -0.009484
  51 C :   -0.052900    0.021693
  52 C :    0.001029   -0.009469
  53 C :   -0.000009    0.020693
  54 H :    0.023750    0.000030
  55 H :    0.034008   -0.000039
  56 H :    0.032317    0.000025
  57 H :    0.032706    0.000022
  58 H :    0.033945   -0.000041
  59 C :   -0.006966   -0.004278
  60 C :   -0.043733    0.014522
  61 C :   -0.006850    0.001587
  62 C :   -0.042488   -0.005504

  Mayer bond orders larger than 0.100000
B(  0-C ,  1-C ) :   1.6759 B(  0-C ,  3-C ) :  -0.1100 B(  0-C , 48-C ) :   0.9102
B(  1-C ,  3-C ) :   0.8820 B(  1-C , 48-C ) :  -0.1791 B(  2-C ,  6-C ) :   0.8816
B(  2-C , 34-C ) :   1.7195 B(  2-C , 37-C ) :  -0.1720 B(  3-C ,  4-C ) :   1.2774
B(  3-C ,  8-C ) :   1.3960 B(  3-C , 48-C ) :   0.1084 B(  4-C ,  5-C ) :   1.2904
B(  4-C , 11-C ) :   1.3829 B(  5-C ,  6-C ) :   1.4481 B(  5-C ,  9-H ) :   0.9176
B(  6-C ,  7-C ) :   1.3417 B(  6-C , 34-C ) :  -0.1078 B(  6-C , 37-C ) :   0.1000
B(  7-C ,  8-C ) :   1.4311 B(  7-C , 22-C ) :   1.0956 B(  8-C , 10-H ) :   0.9200
B( 11-C , 12-H ) :   0.8985 B( 11-C , 13-C ) :   1.0844 B( 13-C , 14-H ) :   0.9113
B( 13-C , 15-H ) :   0.9113 B( 13-C , 16-C ) :   1.0712 B( 16-C , 17-H ) :   0.9438
B( 16-C , 18-H ) :   0.9438 B( 16-C , 19-C ) :   1.1067 B( 19-C , 20-H ) :   0.9653
B( 19-C , 21-H ) :   0.9653 B( 19-C , 35-H ) :   0.9607 B( 22-C , 23-H ) :   0.8956
B( 22-C , 24-H ) :   0.8956 B( 22-C , 25-C ) :   1.1046 B( 25-C , 26-H ) :   0.9292
B( 25-C , 27-H ) :   0.9293 B( 25-C , 28-C ) :   1.0746 B( 28-C , 29-H ) :   0.9410
B( 28-C , 30-H ) :   0.9410 B( 28-C , 31-C ) :   1.1063 B( 31-C , 32-H ) :   0.9662
B( 31-C , 33-H ) :   0.9662 B( 31-C , 36-H ) :   0.9616 B( 34-C , 37-C ) :   0.9070
B( 37-C , 38-C ) :   1.4252 B( 37-C , 42-C ) :   1.4209 B( 38-C , 39-C ) :   1.4709
B( 38-C , 45-H ) :   0.9383 B( 39-C , 40-C ) :   1.4100 B( 39-C , 47-H ) :   0.9379
B( 40-C , 41-C ) :   1.4099 B( 40-C , 61-C ) :   0.9044 B( 41-C , 42-C ) :   1.4711
B( 41-C , 44-H ) :   0.9379 B( 42-C , 46-H ) :   0.9386 B( 43-H , 62-C ) :   1.1119
B( 48-C , 49-C ) :   1.4186 B( 48-C , 53-C ) :   1.4204 B( 49-C , 50-C ) :   1.4731
B( 49-C , 56-H ) :   0.9386 B( 50-C , 51-C ) :   1.4075 B( 50-C , 58-H ) :   0.9379
B( 51-C , 52-C ) :   1.4080 B( 51-C , 59-C ) :   0.9056 B( 52-C , 53-C ) :   1.4739
B( 52-C , 55-H ) :   0.9377 B( 53-C , 57-H ) :   0.9380 B( 54-H , 60-C ) :   1.1119
B( 59-C , 60-C ) :   2.1535 B( 61-C , 62-C ) :   2.1539

FINAL SINGLE POINT ENERGY     -1312.049093933777

DIPOLE MOMENT
-------------
                                X             Y             Z
Electronic contribution:      0.39457      -1.96447       0.00826
Nuclear contribution   :     -0.55902       1.91830      -0.00854
                        -----------------------------------------
Total Dipole Moment    :     -0.16445      -0.04618      -0.00027
                        -----------------------------------------
Magnitude (a.u.)       :      0.17081
Magnitude (Debye)      :      0.43416

Rotational constants in cm-1:     0.005920     0.001229     0.001019
Rotational constants in MHz :   177.462640    36.836715    30.545296

CHEMICAL SHIELDING SUMMARY (ppm)  --  Orbital contribution
----------------------------------------------------------

  Nucleus  Element    Isotropic     Anisotropy
  -------  -------  ------------   ------------
      9       H           93.962         84.771
     10       H          100.293         73.765
     12       H           83.568         31.971
     14       H           92.388         32.595
     15       H           92.468         32.518
     17       H           49.543         39.235
     18       H           49.473         39.196
     20       H           33.192         26.642
     21       H           33.118         26.706
     23       H           94.511         61.694
     24       H           94.457         61.743
     26       H          102.251         32.358
     27       H          102.317         32.400
     29       H           47.795         40.174
     30       H           47.735         40.226
     32       H           40.037         26.143
     33       H           40.000         26.111
     35       H          -54.776         16.941
     36       H          -52.484         15.909
     43       H         -240.130       -228.091
     44       H          -44.852          1.462
     45       H          119.508         20.132
     46       H          119.518         23.321
     47       H          -45.190          1.331
     54       H         -239.328       -224.500
     55       H          -38.066          2.436
     56       H          112.323         21.243
     57       H          126.400         20.945
     58       H          -51.134         -0.350

                             ****ORCA TERMINATED NORMALLY****
TOTAL RUN TIME: 0 days 3 hours 46 minutes 19 seconds 917 msec
