                         Program Version 5.0.4 -  RELEASE  -
|  1> ! B3LYP cc-pVDZ AUTOAUX
|  2> %pal nprocs 16 end
|  3> *XYZFile 0 2 opt.xyz
|  4> %EPRNMR
|  5>         GTENSOR   TRUE
|  6>         NUCLEI    = ALL H {SHIFT, AISO, ADIP, AORB}
|  7>         ORI       CenterOfElCharge
|  8> END
|  9>
| 10>                          ****END OF INPUT****

CARTESIAN COORDINATES (ANGSTROEM)
---------------------------------
  C     12.367468   -0.026690   -0.004521
  C     11.143536   -0.068421   -0.003249
  C      5.470105   -0.000456   -0.000953
  C      9.724522   -0.088645   -0.002867
  C      8.990628   -1.335024   -0.006403
  C      7.570759   -1.236349   -0.005487
  C      6.897637   -0.011889   -0.001450
  C      7.634424    1.217416    0.002056
  C      9.026112    1.135702    0.001259
  H      6.974675   -2.149130   -0.008114
  H      9.619812    2.049654    0.003881
  C      9.646865   -2.583921   -0.010645
  H     10.739981   -2.573932   -0.011197
  C      8.960510   -3.917165   -0.014594
  H      8.287887   -4.000132    0.864048
  H      8.286468   -3.994223   -0.892681
  C      9.932017   -5.104805   -0.019413
  H     10.591664   -5.026394   -0.902868
  H     10.593459   -5.032110    0.863189
  C      9.223189   -6.460465   -0.023106
  H      8.579052   -6.573687   -0.912248
  H      8.580972   -6.579530    0.866660
  C      6.888617    2.535280    0.006628
  H      6.209492    2.550134   -0.866458
  H      6.212355    2.545704    0.882021
  C      7.733771    3.811741    0.008515
  H      8.398339    3.820953    0.891977
  H      8.396097    3.824967   -0.876584
  C      6.878227    5.084572    0.012531
  H      6.210709    5.076758   -0.869130
  H      6.212980    5.072748    0.895865
  C      7.710095    6.369491    0.014397
  H      8.360072    6.427193   -0.875761
  H      8.362497    6.423053    0.903036
  C      4.247577    0.004948    0.000113
  H      9.945336   -7.292652   -0.026626
  H      7.068970    7.265890    0.017359
  C      2.821946    0.006500    0.000494
  C      2.097893   -1.206838   -0.000235
  C      0.707780   -1.204952    0.000050
  C     -0.010741    0.009504    0.001091
  C      0.710352    1.222515    0.001864
  C      2.100373    1.221345    0.001582
  H     -3.729592    0.014614    0.001756
  H      0.163384    2.167010    0.002651
  H      2.643820   -2.151876   -0.001021
  H      2.647986    2.165427    0.002150
  H      0.158864   -2.148310   -0.000515
  C     13.789722    0.031477   -0.005118
  C     14.565302   -1.150711   -0.007168
  C     15.953740   -1.090712   -0.007603
  C     16.621353    0.152770   -0.006014
  C     15.849687    1.334610   -0.003972
  C     14.461312    1.275873   -0.003524
  H     20.336530    0.314151   -0.006977
  H     16.356949    2.301040   -0.002743
  H     14.060641   -2.118439   -0.008361
  H     13.874663    2.196192   -0.001939
  H     16.541337   -2.010509   -0.009127
  C     18.050568    0.214344   -0.006425
  C     19.265095    0.266906   -0.006700
  C     -1.441545    0.011220    0.001350
  C     -2.657087    0.013045    0.001570

 Total Charge           Charge          ....    0
 Multiplicity           Mult            ....    2
 Number of Electrons    NEL             ....  233
 Basis Dimension        Dim             ....  621

ORBITAL ENERGIES
----------------
                 SPIN UP ORBITALS
  NO   OCC          E(Eh)            E(eV)
   0   1.0000     -10.224087      -278.2116
   1   1.0000     -10.222762      -278.1755
   2   1.0000     -10.222265      -278.1620
   3   1.0000     -10.221317      -278.1362
   4   1.0000     -10.217713      -278.0381
   5   1.0000     -10.215777      -277.9854
   6   1.0000     -10.205861      -277.7156
   7   1.0000     -10.204410      -277.6761
   8   1.0000     -10.204328      -277.6739
   9   1.0000     -10.203807      -277.6597
  10   1.0000     -10.203694      -277.6566
  11   1.0000     -10.202910      -277.6353
  12   1.0000     -10.202708      -277.6298
  13   1.0000     -10.202405      -277.6215
  14   1.0000     -10.202181      -277.6154
  15   1.0000     -10.201926      -277.6085
  16   1.0000     -10.198417      -277.5130
  17   1.0000     -10.196061      -277.4489
  18   1.0000     -10.195834      -277.4427
  19   1.0000     -10.195240      -277.4266
  20   1.0000     -10.194426      -277.4044
  21   1.0000     -10.193990      -277.3926
  22   1.0000     -10.193241      -277.3722
  23   1.0000     -10.193124      -277.3690
  24   1.0000     -10.191908      -277.3359
  25   1.0000     -10.191184      -277.3162
  26   1.0000     -10.190756      -277.3046
  27   1.0000     -10.190021      -277.2846
  28   1.0000     -10.189534      -277.2713
  29   1.0000     -10.186611      -277.1918
  30   1.0000     -10.184401      -277.1316
  31   1.0000     -10.184128      -277.1242
  32   1.0000     -10.179253      -276.9916
  33   1.0000     -10.177530      -276.9447
  34   1.0000      -0.877862       -23.8878
  35   1.0000      -0.875389       -23.8206
  36   1.0000      -0.873918       -23.7805
  37   1.0000      -0.824134       -22.4258
  38   1.0000      -0.809074       -22.0160
  39   1.0000      -0.806208       -21.9380
  40   1.0000      -0.798922       -21.7398
  41   1.0000      -0.793145       -21.5826
  42   1.0000      -0.770987       -20.9796
  43   1.0000      -0.759761       -20.6742
  44   1.0000      -0.758714       -20.6457
  45   1.0000      -0.758423       -20.6377
  46   1.0000      -0.746285       -20.3074
  47   1.0000      -0.736967       -20.0539
  48   1.0000      -0.725984       -19.7550
  49   1.0000      -0.712954       -19.4005
  50   1.0000      -0.700409       -19.0591
  51   1.0000      -0.660757       -17.9801
  52   1.0000      -0.658108       -17.9080
  53   1.0000      -0.642374       -17.4799
  54   1.0000      -0.623383       -16.9631
  55   1.0000      -0.619303       -16.8521
  56   1.0000      -0.618620       -16.8335
  57   1.0000      -0.617712       -16.8088
  58   1.0000      -0.594906       -16.1882
  59   1.0000      -0.582810       -15.8591
  60   1.0000      -0.564737       -15.3673
  61   1.0000      -0.553285       -15.0556
  62   1.0000      -0.552003       -15.0208
  63   1.0000      -0.542812       -14.7707
  64   1.0000      -0.534301       -14.5391
  65   1.0000      -0.510463       -13.8904
  66   1.0000      -0.507309       -13.8046
  67   1.0000      -0.496988       -13.5237
  68   1.0000      -0.492467       -13.4007
  69   1.0000      -0.482306       -13.1242
  70   1.0000      -0.473364       -12.8809
  71   1.0000      -0.473282       -12.8787
  72   1.0000      -0.471581       -12.8324
  73   1.0000      -0.464984       -12.6529
  74   1.0000      -0.445715       -12.1285
  75   1.0000      -0.444109       -12.0848
  76   1.0000      -0.436318       -11.8728
  77   1.0000      -0.432678       -11.7738
  78   1.0000      -0.431256       -11.7351
  79   1.0000      -0.429827       -11.6962
  80   1.0000      -0.428847       -11.6695
  81   1.0000      -0.424730       -11.5575
  82   1.0000      -0.414367       -11.2755
  83   1.0000      -0.401913       -10.9366
  84   1.0000      -0.401782       -10.9330
  85   1.0000      -0.394807       -10.7432
  86   1.0000      -0.393834       -10.7168
  87   1.0000      -0.386338       -10.5128
  88   1.0000      -0.385304       -10.4847
  89   1.0000      -0.382101       -10.3975
  90   1.0000      -0.381593       -10.3837
  91   1.0000      -0.368054       -10.0153
  92   1.0000      -0.361241        -9.8299
  93   1.0000      -0.360261        -9.8032
  94   1.0000      -0.359125        -9.7723
  95   1.0000      -0.358200        -9.7471
  96   1.0000      -0.345088        -9.3903
  97   1.0000      -0.343141        -9.3373
  98   1.0000      -0.336095        -9.1456
  99   1.0000      -0.335340        -9.1251
 100   1.0000      -0.331366        -9.0169
 101   1.0000      -0.330299        -8.9879
 102   1.0000      -0.326951        -8.8968
 103   1.0000      -0.325706        -8.8629
 104   1.0000      -0.312135        -8.4936
 105   1.0000      -0.285678        -7.7737
 106   1.0000      -0.280179        -7.6241
 107   1.0000      -0.278869        -7.5884
 108   1.0000      -0.275137        -7.4869
 109   1.0000      -0.273497        -7.4422
 110   1.0000      -0.271727        -7.3941
 111   1.0000      -0.266807        -7.2602
 112   1.0000      -0.265993        -7.2380
 113   1.0000      -0.260237        -7.0814
 114   1.0000      -0.230406        -6.2697
 115   1.0000      -0.209820        -5.7095
 116   1.0000      -0.173925        -4.7327
 117   0.0000      -0.076359        -2.0778
 118   0.0000      -0.049443        -1.3454
 119   0.0000      -0.016671        -0.4536
 120   0.0000      -0.015502        -0.4218
 121   0.0000      -0.014430        -0.3926

                 SPIN DOWN ORBITALS
  NO   OCC          E(Eh)            E(eV)
   0   1.0000     -10.223918      -278.2069
   1   1.0000     -10.222935      -278.1802
   2   1.0000     -10.222655      -278.1726
   3   1.0000     -10.220865      -278.1239
   4   1.0000     -10.217371      -278.0288
   5   1.0000     -10.214371      -277.9472
   6   1.0000     -10.204403      -277.6759
   7   1.0000     -10.204372      -277.6751
   8   1.0000     -10.204311      -277.6734
   9   1.0000     -10.203892      -277.6620
  10   1.0000     -10.203789      -277.6592
  11   1.0000     -10.202961      -277.6367
  12   1.0000     -10.202816      -277.6327
  13   1.0000     -10.202497      -277.6241
  14   1.0000     -10.202169      -277.6151
  15   1.0000     -10.201890      -277.6075
  16   1.0000     -10.195789      -277.4415
  17   1.0000     -10.195309      -277.4285
  18   1.0000     -10.195279      -277.4276
  19   1.0000     -10.194809      -277.4149
  20   1.0000     -10.194552      -277.4079
  21   1.0000     -10.194015      -277.3932
  22   1.0000     -10.193250      -277.3724
  23   1.0000     -10.191853      -277.3344
  24   1.0000     -10.191454      -277.3236
  25   1.0000     -10.190840      -277.3069
  26   1.0000     -10.190220      -277.2900
  27   1.0000     -10.189304      -277.2651
  28   1.0000     -10.186573      -277.1907
  29   1.0000     -10.186224      -277.1813
  30   1.0000     -10.184398      -277.1316
  31   1.0000     -10.184128      -277.1242
  32   1.0000     -10.179261      -276.9918
  33   1.0000     -10.177532      -276.9447
  34   1.0000      -0.876386       -23.8477
  35   1.0000      -0.874548       -23.7977
  36   1.0000      -0.872648       -23.7459
  37   1.0000      -0.819811       -22.3082
  38   1.0000      -0.807835       -21.9823
  39   1.0000      -0.805428       -21.9168
  40   1.0000      -0.796933       -21.6856
  41   1.0000      -0.792094       -21.5540
  42   1.0000      -0.768989       -20.9253
  43   1.0000      -0.759896       -20.6778
  44   1.0000      -0.758285       -20.6340
  45   1.0000      -0.758090       -20.6287
  46   1.0000      -0.745743       -20.2927
  47   1.0000      -0.733775       -19.9670
  48   1.0000      -0.724784       -19.7224
  49   1.0000      -0.711977       -19.3739
  50   1.0000      -0.698220       -18.9995
  51   1.0000      -0.659255       -17.9393
  52   1.0000      -0.655655       -17.8413
  53   1.0000      -0.642107       -17.4726
  54   1.0000      -0.622099       -16.9282
  55   1.0000      -0.619387       -16.8544
  56   1.0000      -0.617570       -16.8049
  57   1.0000      -0.613457       -16.6930
  58   1.0000      -0.594006       -16.1637
  59   1.0000      -0.581244       -15.8164
  60   1.0000      -0.562026       -15.2935
  61   1.0000      -0.553365       -15.0578
  62   1.0000      -0.551753       -15.0140
  63   1.0000      -0.542205       -14.7542
  64   1.0000      -0.533435       -14.5155
  65   1.0000      -0.507643       -13.8137
  66   1.0000      -0.506256       -13.7759
  67   1.0000      -0.496642       -13.5143
  68   1.0000      -0.491691       -13.3796
  69   1.0000      -0.480941       -13.0871
  70   1.0000      -0.473295       -12.8790
  71   1.0000      -0.472505       -12.8575
  72   1.0000      -0.471351       -12.8261
  73   1.0000      -0.461527       -12.5588
  74   1.0000      -0.445682       -12.1276
  75   1.0000      -0.443906       -12.0793
  76   1.0000      -0.434267       -11.8170
  77   1.0000      -0.431349       -11.7376
  78   1.0000      -0.431265       -11.7353
  79   1.0000      -0.429719       -11.6932
  80   1.0000      -0.427649       -11.6369
  81   1.0000      -0.422130       -11.4867
  82   1.0000      -0.413889       -11.2625
  83   1.0000      -0.400888       -10.9087
  84   1.0000      -0.396367       -10.7857
  85   1.0000      -0.394282       -10.7289
  86   1.0000      -0.391118       -10.6429
  87   1.0000      -0.386441       -10.5156
  88   1.0000      -0.384894       -10.4735
  89   1.0000      -0.379383       -10.3235
  90   1.0000      -0.378625       -10.3029
  91   1.0000      -0.366934        -9.9848
  92   1.0000      -0.361174        -9.8281
  93   1.0000      -0.359808        -9.7909
  94   1.0000      -0.358563        -9.7570
  95   1.0000      -0.355194        -9.6653
  96   1.0000      -0.344669        -9.3789
  97   1.0000      -0.340917        -9.2768
  98   1.0000      -0.334842        -9.1115
  99   1.0000      -0.333991        -9.0884
 100   1.0000      -0.329961        -8.9787
 101   1.0000      -0.329825        -8.9750
 102   1.0000      -0.326200        -8.8763
 103   1.0000      -0.325356        -8.8534
 104   1.0000      -0.310061        -8.4372
 105   1.0000      -0.282412        -7.6848
 106   1.0000      -0.280211        -7.6249
 107   1.0000      -0.278764        -7.5856
 108   1.0000      -0.273356        -7.4384
 109   1.0000      -0.271315        -7.3829
 110   1.0000      -0.267191        -7.2707
 111   1.0000      -0.265047        -7.2123
 112   1.0000      -0.262305        -7.1377
 113   1.0000      -0.257646        -7.0109
 114   1.0000      -0.229002        -6.2315
 115   1.0000      -0.203050        -5.5253
 116   0.0000      -0.091496        -2.4897
 117   0.0000      -0.067708        -1.8424
 118   0.0000      -0.047476        -1.2919
 119   0.0000      -0.016998        -0.4625
 120   0.0000      -0.014711        -0.4003

MULLIKEN ATOMIC CHARGES AND SPIN POPULATIONS
--------------------------------------------
   0 C :    0.184096    0.099879
   1 C :    0.250499   -0.067126
   2 C :    0.239363    0.031716
   3 C :   -0.188683    0.221736
   4 C :    0.071542   -0.168497
   5 C :   -0.027479    0.221059
   6 C :   -0.152485   -0.105957
   7 C :   -0.086459    0.231226
   8 C :    0.009183   -0.117165
   9 H :   -0.052337   -0.009186
  10 H :   -0.053776    0.004248
  11 C :   -0.099350    0.693730
  12 H :   -0.025902   -0.030186
  13 C :    0.033882   -0.047564
  14 H :    0.029964    0.031127
  15 H :    0.029984    0.031107
  16 C :   -0.039780    0.002245
  17 H :    0.012915    0.000456
  18 H :    0.012909    0.000455
  19 C :    0.005985   -0.000174
  20 H :    0.018051    0.000151
  21 H :    0.018057    0.000151
  22 C :    0.038738   -0.018407
  23 H :    0.032473    0.009843
  24 H :    0.032494    0.009875
  25 C :   -0.034309    0.000853
  26 H :    0.017180    0.000168
  27 H :    0.017126    0.000171
  28 C :   -0.025320    0.000026
  29 H :    0.005860    0.000052
  30 H :    0.005871    0.000052
  31 C :    0.003232   -0.000079
  32 H :    0.017682    0.000023
  33 H :    0.017672    0.000023
  34 C :    0.169686   -0.047082
  35 H :    0.014290   -0.000199
  36 H :    0.013413   -0.000005
  37 C :   -0.242844    0.011362
  38 C :    0.035912   -0.010848
  39 C :    0.047331    0.005990
  40 C :   -0.101018   -0.011414
  41 C :    0.046985    0.005982
  42 C :    0.033965   -0.010821
  43 H :   -0.025214    0.000258
  44 H :   -0.031787   -0.000228
  45 H :   -0.035328    0.000451
  46 H :   -0.034253    0.000428
  47 H :   -0.031637   -0.000228
  48 C :   -0.246961   -0.025754
  49 C :    0.030403    0.026965
  50 C :    0.046814   -0.015424
  51 C :   -0.101400    0.029630
  52 C :    0.047482   -0.015421
  53 C :    0.035935    0.027063
  54 H :   -0.025798   -0.000722
  55 H :   -0.032268    0.000609
  56 H :   -0.034186   -0.001110
  57 H :   -0.036099   -0.001168
  58 H :   -0.032673    0.000609
  59 C :    0.647080   -0.009992
  60 C :   -0.562426    0.018101
  61 C :    0.647311    0.003635
  62 C :   -0.561590   -0.006700
Sum of atomic charges         :   -0.0000000

LOEWDIN ATOMIC CHARGES AND SPIN POPULATIONS
-------------------------------------------
   0 C :   -0.023660    0.072547
   1 C :   -0.012599   -0.030557
   2 C :   -0.011175    0.016868
   3 C :   -0.039247    0.158742
   4 C :   -0.039411   -0.071767
   5 C :    0.011177    0.166875
   6 C :   -0.052631   -0.058727
   7 C :   -0.004657    0.170619
   8 C :   -0.007235   -0.063964
   9 H :    0.028687    0.000884
  10 H :    0.030064   -0.000452
  11 C :    0.014006    0.569098
  12 H :    0.021511    0.003344
  13 C :   -0.054459    0.005392
  14 H :    0.034797    0.024291
  15 H :    0.034796    0.024274
  16 C :   -0.046062    0.001140
  17 H :    0.025741    0.000290
  18 H :    0.025735    0.000289
  19 C :   -0.067480   -0.000043
  20 H :    0.025809    0.000243
  21 H :    0.025808    0.000244
  22 C :   -0.035593    0.002144
  23 H :    0.039012    0.007744
  24 H :    0.039043    0.007769
  25 C :   -0.043419    0.000151
  26 H :    0.024699    0.000053
  27 H :    0.024702    0.000054
  28 C :   -0.047218    0.000018
  29 H :    0.023976    0.000088
  30 H :    0.023981    0.000088
  31 C :   -0.067446   -0.000038
  32 H :    0.025432    0.000016
  33 H :    0.025429    0.000016
  34 C :   -0.023781   -0.033506
  35 H :    0.028697   -0.000110
  36 H :    0.027812   -0.000007
  37 C :   -0.049268    0.005370
  38 C :    0.000521   -0.008295
  39 C :    0.001440    0.003676
  40 C :   -0.051935   -0.008377
  41 C :    0.001319    0.003671
  42 C :   -0.000411   -0.008282
  43 H :    0.024038   -0.000015
  44 H :    0.034164    0.000020
  45 H :    0.032999   -0.000016
  46 H :    0.032946   -0.000022
  47 H :    0.034228    0.000020
  48 C :   -0.049245   -0.012194
  49 C :   -0.001405    0.020565
  50 C :    0.000896   -0.009433
  51 C :   -0.052920    0.021640
  52 C :    0.001053   -0.009418
  53 C :   -0.000014    0.020636
  54 H :    0.023747    0.000031
  55 H :    0.034012   -0.000041
  56 H :    0.032327    0.000026
  57 H :    0.032710    0.000023
  58 H :    0.033950   -0.000042
  59 C :   -0.007054   -0.004241
  60 C :   -0.043628    0.014463
  61 C :   -0.007003    0.001514
  62 C :   -0.042309   -0.005390

  Mayer bond orders larger than 0.100000
B(  0-C ,  1-C ) :   1.6759 B(  0-C ,  3-C ) :  -0.1100 B(  0-C , 48-C ) :   0.9102
B(  1-C ,  3-C ) :   0.8820 B(  1-C , 48-C ) :  -0.1792 B(  2-C ,  6-C ) :   0.8816
B(  2-C , 34-C ) :   1.7193 B(  2-C , 37-C ) :  -0.1722 B(  3-C ,  4-C ) :   1.2775
B(  3-C ,  8-C ) :   1.3959 B(  3-C , 48-C ) :   0.1084 B(  4-C ,  5-C ) :   1.2905
B(  4-C , 11-C ) :   1.3828 B(  5-C ,  6-C ) :   1.4480 B(  5-C ,  9-H ) :   0.9176
B(  6-C ,  7-C ) :   1.3418 B(  6-C , 34-C ) :  -0.1078 B(  6-C , 37-C ) :   0.1001
B(  7-C ,  8-C ) :   1.4311 B(  7-C , 22-C ) :   1.0956 B(  8-C , 10-H ) :   0.9200
B( 11-C , 12-H ) :   0.8985 B( 11-C , 13-C ) :   1.0844 B( 13-C , 14-H ) :   0.9113
B( 13-C , 15-H ) :   0.9113 B( 13-C , 16-C ) :   1.0712 B( 16-C , 17-H ) :   0.9438
B( 16-C , 18-H ) :   0.9438 B( 16-C , 19-C ) :   1.1067 B( 19-C , 20-H ) :   0.9653
B( 19-C , 21-H ) :   0.9653 B( 19-C , 35-H ) :   0.9607 B( 22-C , 23-H ) :   0.8956
B( 22-C , 24-H ) :   0.8956 B( 22-C , 25-C ) :   1.1046 B( 25-C , 26-H ) :   0.9292
B( 25-C , 27-H ) :   0.9293 B( 25-C , 28-C ) :   1.0746 B( 28-C , 29-H ) :   0.9410
B( 28-C , 30-H ) :   0.9410 B( 28-C , 31-C ) :   1.1064 B( 31-C , 32-H ) :   0.9662
B( 31-C , 33-H ) :   0.9662 B( 31-C , 36-H ) :   0.9616 B( 34-C , 37-C ) :   0.9070
B( 37-C , 38-C ) :   1.4253 B( 37-C , 42-C ) :   1.4209 B( 38-C , 39-C ) :   1.4709
B( 38-C , 45-H ) :   0.9383 B( 39-C , 40-C ) :   1.4100 B( 39-C , 47-H ) :   0.9379
B( 40-C , 41-C ) :   1.4099 B( 40-C , 61-C ) :   0.9044 B( 41-C , 42-C ) :   1.4711
B( 41-C , 44-H ) :   0.9379 B( 42-C , 46-H ) :   0.9386 B( 43-H , 62-C ) :   1.1119
B( 48-C , 49-C ) :   1.4186 B( 48-C , 53-C ) :   1.4204 B( 49-C , 50-C ) :   1.4731
B( 49-C , 56-H ) :   0.9386 B( 50-C , 51-C ) :   1.4075 B( 50-C , 58-H ) :   0.9379
B( 51-C , 52-C ) :   1.4080 B( 51-C , 59-C ) :   0.9056 B( 52-C , 53-C ) :   1.4739
B( 52-C , 55-H ) :   0.9377 B( 53-C , 57-H ) :   0.9380 B( 54-H , 60-C ) :   1.1119
B( 59-C , 60-C ) :   2.1536 B( 61-C , 62-C ) :   2.1542

FINAL SINGLE POINT ENERGY     -1312.049097173466

DIPOLE MOMENT
-------------
                                X             Y             Z
Electronic contribution:      0.39459      -1.96829       0.00380
Nuclear contribution   :     -0.55927       1.92253      -0.00390
                        -----------------------------------------
Total Dipole Moment    :     -0.16468      -0.04576      -0.00010
                        -----------------------------------------
Magnitude (a.u.)       :      0.17092
Magnitude (Debye)      :      0.43443

Rotational constants in cm-1:     0.005920     0.001229     0.001019
Rotational constants in MHz :   177.478005    36.835670    30.545032

CHEMICAL SHIELDING SUMMARY (ppm)  --  Orbital contribution
----------------------------------------------------------

  Nucleus  Element    Isotropic     Anisotropy
  -------  -------  ------------   ------------
      9       H           93.978         84.766
     10       H          100.267         73.778
     12       H           83.588         31.983
     14       H           92.409         32.586
     15       H           92.465         32.525
     17       H           49.545         39.235
     18       H           49.500         39.216
     20       H           33.185         26.652
     21       H           33.136         26.697
     23       H           94.503         61.701
     24       H           94.450         61.733
     26       H          102.247         32.342
     27       H          102.311         32.406
     29       H           47.780         40.174
     30       H           47.721         40.226
     32       H           40.026         26.142
     33       H           39.985         26.105
     35       H          -54.756         16.945
     36       H          -52.498         15.899
     43       H         -240.133       -228.092
     44       H          -44.879          1.458
     45       H          119.535         20.134
     46       H          119.491         23.317
     47       H          -45.168          1.335
     54       H         -239.333       -224.545
     55       H          -38.146          2.425
     56       H          112.394         21.255
     57       H          126.327         20.932
     58       H          -51.063         -0.336

                             ****ORCA TERMINATED NORMALLY****
TOTAL RUN TIME: 0 days 3 hours 46 minutes 31 seconds 788 msec
