                         Program Version 5.0.4 -  RELEASE  -
|  1> ! B3LYP cc-pVDZ AUTOAUX
|  2> %pal nprocs 16 end
|  3> *XYZFile 0 2 opt_cc-pVDZ.xyz
|  4> %EPRNMR
|  5>         GTENSOR   TRUE
|  6>         NUCLEI    = ALL H {SHIFT, AISO, ADIP, AORB}
|  7>         ORI       GIAO
|  8> END
|  9>
| 10>                          ****END OF INPUT****

CARTESIAN COORDINATES (ANGSTROEM)
---------------------------------
  C     12.367466   -0.027254   -0.004271
  C     11.143539   -0.069299   -0.003040
  C      5.470131   -0.000662   -0.000815
  C      9.724526   -0.089437   -0.002678
  C      8.990499   -1.335723   -0.006213
  C      7.570641   -1.236827   -0.005284
  C      6.897657   -0.012283   -0.001347
  C      7.634582    1.216940    0.002004
  C      9.026256    1.135002    0.001260
  H      6.974283   -2.149427   -0.007828
  H      9.620187    2.048805    0.003763
  C      9.646544   -2.584699   -0.010513
  H     10.739691   -2.574825   -0.011224
  C      8.960010   -3.917865   -0.014285
  H      8.287727   -4.000766    0.864628
  H      8.285669   -3.994755   -0.892161
  C      9.931394   -5.105586   -0.019539
  H     10.590733   -5.027211   -0.903247
  H     10.593189   -5.033054    0.862831
  C      9.222319   -6.461124   -0.023062
  H      8.577847   -6.574132   -0.911994
  H      8.580458   -6.580123    0.866977
  C      6.889022    2.534941    0.006282
  H      6.210012    2.549779   -0.866924
  H      6.212620    2.545607    0.881592
  C      7.734368    3.811262    0.008082
  H      8.398869    3.820544    0.891619
  H      8.396779    3.824334   -0.876981
  C      6.878874    5.084153    0.011857
  H      6.211424    5.076210   -0.869877
  H      6.213550    5.072435    0.895157
  C      7.710870    6.368993    0.013614
  H      8.360868    6.426451   -0.876552
  H      8.363212    6.422506    0.902310
  C      4.247600    0.004800    0.000267
  H      9.944286   -7.293461   -0.026932
  H      7.069825    7.265432    0.016449
  C      2.821974    0.006564    0.000675
  C      2.097717   -1.206649   -0.001354
  C      0.707606   -1.204525   -0.001048
  C     -0.010713    0.010051    0.001310
  C      0.710586    1.222936    0.003369
  C      2.100604    1.221532    0.003068
  H     -3.729564    0.015721    0.002046
  H      0.163795    2.167534    0.005200
  H      2.643471   -2.151786   -0.003192
  H      2.648407    2.165507    0.004660
  H      0.158546   -2.147798   -0.002644
  C     13.789690    0.031504   -0.004822
  C     14.565842   -1.150310   -0.007823
  C     15.954243   -1.089616   -0.008291
  C     16.621265    0.154185   -0.005806
  C     15.849032    1.335648   -0.002864
  C     14.460686    1.276220   -0.002390
  H     20.336370    0.317181   -0.006913
  H     16.355741    2.302369   -0.000948
  H     14.061634   -2.118278   -0.009746
  H     13.873587    2.196248   -0.000104
  H     16.542333   -2.009094   -0.010582
  C     18.050447    0.216424   -0.006272
  C     19.264950    0.269530   -0.006594
  C     -1.441514    0.012000    0.001596
  C     -2.657054    0.014002    0.001839

 Total Charge           Charge          ....    0
 Multiplicity           Mult            ....    2
 Number of Electrons    NEL             ....  233
 Basis Dimension        Dim             ....  621

ORBITAL ENERGIES
----------------
                 SPIN UP ORBITALS
  NO   OCC          E(Eh)            E(eV)
   0   1.0000     -10.224020      -278.2097
   1   1.0000     -10.222769      -278.1757
   2   1.0000     -10.222240      -278.1613
   3   1.0000     -10.221302      -278.1358
   4   1.0000     -10.217775      -278.0398
   5   1.0000     -10.215775      -277.9854
   6   1.0000     -10.205877      -277.7160
   7   1.0000     -10.204409      -277.6761
   8   1.0000     -10.204333      -277.6740
   9   1.0000     -10.203783      -277.6591
  10   1.0000     -10.203672      -277.6560
  11   1.0000     -10.202889      -277.6347
  12   1.0000     -10.202703      -277.6297
  13   1.0000     -10.202384      -277.6210
  14   1.0000     -10.202175      -277.6153
  15   1.0000     -10.201924      -277.6085
  16   1.0000     -10.198389      -277.5123
  17   1.0000     -10.196049      -277.4486
  18   1.0000     -10.195805      -277.4420
  19   1.0000     -10.195231      -277.4263
  20   1.0000     -10.194405      -277.4039
  21   1.0000     -10.193984      -277.3924
  22   1.0000     -10.193300      -277.3738
  23   1.0000     -10.193086      -277.3680
  24   1.0000     -10.191928      -277.3365
  25   1.0000     -10.191177      -277.3160
  26   1.0000     -10.190801      -277.3058
  27   1.0000     -10.190036      -277.2850
  28   1.0000     -10.189553      -277.2718
  29   1.0000     -10.186617      -277.1919
  30   1.0000     -10.184414      -277.1320
  31   1.0000     -10.184132      -277.1243
  32   1.0000     -10.179263      -276.9918
  33   1.0000     -10.177543      -276.9450
  34   1.0000      -0.877869       -23.8880
  35   1.0000      -0.875378       -23.8202
  36   1.0000      -0.873908       -23.7803
  37   1.0000      -0.824140       -22.4260
  38   1.0000      -0.809068       -22.0159
  39   1.0000      -0.806195       -21.9377
  40   1.0000      -0.798924       -21.7398
  41   1.0000      -0.793147       -21.5826
  42   1.0000      -0.770992       -20.9798
  43   1.0000      -0.759752       -20.6739
  44   1.0000      -0.758711       -20.6456
  45   1.0000      -0.758414       -20.6375
  46   1.0000      -0.746282       -20.3074
  47   1.0000      -0.736970       -20.0540
  48   1.0000      -0.725982       -19.7550
  49   1.0000      -0.712950       -19.4004
  50   1.0000      -0.700411       -19.0592
  51   1.0000      -0.660758       -17.9802
  52   1.0000      -0.658108       -17.9080
  53   1.0000      -0.642365       -17.4797
  54   1.0000      -0.623384       -16.9631
  55   1.0000      -0.619289       -16.8517
  56   1.0000      -0.618616       -16.8334
  57   1.0000      -0.617701       -16.8085
  58   1.0000      -0.594908       -16.1883
  59   1.0000      -0.582808       -15.8590
  60   1.0000      -0.564743       -15.3674
  61   1.0000      -0.553282       -15.0556
  62   1.0000      -0.551998       -15.0206
  63   1.0000      -0.542807       -14.7705
  64   1.0000      -0.534292       -14.5388
  65   1.0000      -0.510462       -13.8904
  66   1.0000      -0.507321       -13.8049
  67   1.0000      -0.496986       -13.5237
  68   1.0000      -0.492471       -13.4008
  69   1.0000      -0.482313       -13.1244
  70   1.0000      -0.473368       -12.8810
  71   1.0000      -0.473268       -12.8783
  72   1.0000      -0.471570       -12.8321
  73   1.0000      -0.464986       -12.6529
  74   1.0000      -0.445704       -12.1282
  75   1.0000      -0.444100       -12.0846
  76   1.0000      -0.436321       -11.8729
  77   1.0000      -0.432681       -11.7739
  78   1.0000      -0.431247       -11.7348
  79   1.0000      -0.429819       -11.6960
  80   1.0000      -0.428850       -11.6696
  81   1.0000      -0.424735       -11.5576
  82   1.0000      -0.414372       -11.2756
  83   1.0000      -0.401918       -10.9368
  84   1.0000      -0.401786       -10.9331
  85   1.0000      -0.394794       -10.7429
  86   1.0000      -0.393826       -10.7165
  87   1.0000      -0.386324       -10.5124
  88   1.0000      -0.385293       -10.4844
  89   1.0000      -0.382108       -10.3977
  90   1.0000      -0.381591       -10.3836
  91   1.0000      -0.368055       -10.0153
  92   1.0000      -0.361232        -9.8296
  93   1.0000      -0.360258        -9.8031
  94   1.0000      -0.359119        -9.7721
  95   1.0000      -0.358206        -9.7473
  96   1.0000      -0.345083        -9.3902
  97   1.0000      -0.343140        -9.3373
  98   1.0000      -0.336090        -9.1455
  99   1.0000      -0.335342        -9.1251
 100   1.0000      -0.331364        -9.0169
 101   1.0000      -0.330306        -8.9881
 102   1.0000      -0.326953        -8.8968
 103   1.0000      -0.325710        -8.8630
 104   1.0000      -0.312134        -8.4936
 105   1.0000      -0.285677        -7.7737
 106   1.0000      -0.280184        -7.6242
 107   1.0000      -0.278868        -7.5884
 108   1.0000      -0.275144        -7.4871
 109   1.0000      -0.273481        -7.4418
 110   1.0000      -0.271731        -7.3942
 111   1.0000      -0.266798        -7.2599
 112   1.0000      -0.265984        -7.2378
 113   1.0000      -0.260236        -7.0814
 114   1.0000      -0.230404        -6.2696
 115   1.0000      -0.209813        -5.7093
 116   1.0000      -0.173928        -4.7328
 117   0.0000      -0.076354        -2.0777
 118   0.0000      -0.049439        -1.3453
 119   0.0000      -0.016661        -0.4534
 120   0.0000      -0.015492        -0.4216
 121   0.0000      -0.014430        -0.3927

                 SPIN DOWN ORBITALS
  NO   OCC          E(Eh)            E(eV)
   0   1.0000     -10.223850      -278.2051
   1   1.0000     -10.222942      -278.1804
   2   1.0000     -10.222631      -278.1719
   3   1.0000     -10.220851      -278.1235
   4   1.0000     -10.217370      -278.0288
   5   1.0000     -10.214432      -277.9488
   6   1.0000     -10.204394      -277.6757
   7   1.0000     -10.204370      -277.6750
   8   1.0000     -10.204309      -277.6734
   9   1.0000     -10.203876      -277.6616
  10   1.0000     -10.203774      -277.6588
  11   1.0000     -10.202949      -277.6364
  12   1.0000     -10.202812      -277.6326
  13   1.0000     -10.202513      -277.6245
  14   1.0000     -10.202141      -277.6144
  15   1.0000     -10.201883      -277.6073
  16   1.0000     -10.195760      -277.4407
  17   1.0000     -10.195280      -277.4277
  18   1.0000     -10.195248      -277.4268
  19   1.0000     -10.194868      -277.4165
  20   1.0000     -10.194531      -277.4073
  21   1.0000     -10.194048      -277.3941
  22   1.0000     -10.193234      -277.3720
  23   1.0000     -10.191846      -277.3342
  24   1.0000     -10.191435      -277.3231
  25   1.0000     -10.190886      -277.3081
  26   1.0000     -10.190236      -277.2904
  27   1.0000     -10.189323      -277.2656
  28   1.0000     -10.186578      -277.1909
  29   1.0000     -10.186213      -277.1809
  30   1.0000     -10.184411      -277.1319
  31   1.0000     -10.184132      -277.1243
  32   1.0000     -10.179271      -276.9920
  33   1.0000     -10.177545      -276.9451
  34   1.0000      -0.876375       -23.8474
  35   1.0000      -0.874542       -23.7975
  36   1.0000      -0.872650       -23.7460
  37   1.0000      -0.819816       -22.3083
  38   1.0000      -0.807825       -21.9820
  39   1.0000      -0.805417       -21.9165
  40   1.0000      -0.796934       -21.6857
  41   1.0000      -0.792097       -21.5541
  42   1.0000      -0.768995       -20.9254
  43   1.0000      -0.759886       -20.6775
  44   1.0000      -0.758281       -20.6339
  45   1.0000      -0.758081       -20.6284
  46   1.0000      -0.745741       -20.2926
  47   1.0000      -0.733777       -19.9671
  48   1.0000      -0.724784       -19.7224
  49   1.0000      -0.711973       -19.3738
  50   1.0000      -0.698222       -18.9996
  51   1.0000      -0.659255       -17.9392
  52   1.0000      -0.655657       -17.8413
  53   1.0000      -0.642098       -17.4724
  54   1.0000      -0.622100       -16.9282
  55   1.0000      -0.619374       -16.8540
  56   1.0000      -0.617559       -16.8046
  57   1.0000      -0.613455       -16.6930
  58   1.0000      -0.594007       -16.1638
  59   1.0000      -0.581243       -15.8164
  60   1.0000      -0.562032       -15.2937
  61   1.0000      -0.553362       -15.0578
  62   1.0000      -0.551747       -15.0138
  63   1.0000      -0.542200       -14.7540
  64   1.0000      -0.533426       -14.5153
  65   1.0000      -0.507644       -13.8137
  66   1.0000      -0.506266       -13.7762
  67   1.0000      -0.496639       -13.5142
  68   1.0000      -0.491696       -13.3797
  69   1.0000      -0.480948       -13.0873
  70   1.0000      -0.473281       -12.8786
  71   1.0000      -0.472510       -12.8576
  72   1.0000      -0.471340       -12.8258
  73   1.0000      -0.461530       -12.5589
  74   1.0000      -0.445671       -12.1273
  75   1.0000      -0.443897       -12.0790
  76   1.0000      -0.434271       -11.8171
  77   1.0000      -0.431349       -11.7376
  78   1.0000      -0.431259       -11.7352
  79   1.0000      -0.429710       -11.6930
  80   1.0000      -0.427652       -11.6370
  81   1.0000      -0.422134       -11.4868
  82   1.0000      -0.413893       -11.2626
  83   1.0000      -0.400894       -10.9089
  84   1.0000      -0.396360       -10.7855
  85   1.0000      -0.394274       -10.7287
  86   1.0000      -0.391115       -10.6428
  87   1.0000      -0.386427       -10.5152
  88   1.0000      -0.384884       -10.4732
  89   1.0000      -0.379381       -10.3235
  90   1.0000      -0.378632       -10.3031
  91   1.0000      -0.366934        -9.9848
  92   1.0000      -0.361164        -9.8278
  93   1.0000      -0.359802        -9.7907
  94   1.0000      -0.358561        -9.7569
  95   1.0000      -0.355199        -9.6655
  96   1.0000      -0.344663        -9.3788
  97   1.0000      -0.340915        -9.2768
  98   1.0000      -0.334844        -9.1116
  99   1.0000      -0.333986        -9.0882
 100   1.0000      -0.329968        -8.9789
 101   1.0000      -0.329823        -8.9749
 102   1.0000      -0.326202        -8.8764
 103   1.0000      -0.325361        -8.8535
 104   1.0000      -0.310061        -8.4372
 105   1.0000      -0.282410        -7.6848
 106   1.0000      -0.280216        -7.6251
 107   1.0000      -0.278764        -7.5855
 108   1.0000      -0.273341        -7.4380
 109   1.0000      -0.271319        -7.3830
 110   1.0000      -0.267183        -7.2704
 111   1.0000      -0.265038        -7.2120
 112   1.0000      -0.262316        -7.1380
 113   1.0000      -0.257646        -7.0109
 114   1.0000      -0.229000        -6.2314
 115   1.0000      -0.203045        -5.5251
 116   0.0000      -0.091500        -2.4898
 117   0.0000      -0.067701        -1.8422
 118   0.0000      -0.047472        -1.2918
 119   0.0000      -0.016987        -0.4622
 120   0.0000      -0.014701        -0.4000

MULLIKEN ATOMIC CHARGES AND SPIN POPULATIONS
--------------------------------------------
   0 C :    0.184020    0.099977
   1 C :    0.250534   -0.067228
   2 C :    0.239342    0.031923
   3 C :   -0.188619    0.221826
   4 C :    0.071619   -0.168550
   5 C :   -0.027550    0.221138
   6 C :   -0.152507   -0.106070
   7 C :   -0.086406    0.231310
   8 C :    0.009215   -0.117231
   9 H :   -0.052338   -0.009193
  10 H :   -0.053787    0.004253
  11 C :   -0.099413    0.693698
  12 H :   -0.025891   -0.030186
  13 C :    0.033906   -0.047563
  14 H :    0.029970    0.031127
  15 H :    0.029988    0.031100
  16 C :   -0.039782    0.002245
  17 H :    0.012915    0.000457
  18 H :    0.012911    0.000455
  19 C :    0.005996   -0.000174
  20 H :    0.018048    0.000151
  21 H :    0.018058    0.000151
  22 C :    0.038705   -0.018419
  23 H :    0.032479    0.009847
  24 H :    0.032491    0.009877
  25 C :   -0.034298    0.000854
  26 H :    0.017178    0.000168
  27 H :    0.017132    0.000171
  28 C :   -0.025338    0.000026
  29 H :    0.005861    0.000052
  30 H :    0.005866    0.000052
  31 C :    0.003254   -0.000079
  32 H :    0.017686    0.000023
  33 H :    0.017674    0.000023
  34 C :    0.169655   -0.047252
  35 H :    0.014283   -0.000199
  36 H :    0.013409   -0.000005
  37 C :   -0.242857    0.011452
  38 C :    0.035906   -0.010940
  39 C :    0.047344    0.006076
  40 C :   -0.100996   -0.011502
  41 C :    0.047010    0.006068
  42 C :    0.033932   -0.010913
  43 H :   -0.025228    0.000262
  44 H :   -0.031787   -0.000234
  45 H :   -0.035321    0.000457
  46 H :   -0.034245    0.000434
  47 H :   -0.031638   -0.000234
  48 C :   -0.246985   -0.025799
  49 C :    0.030388    0.027010
  50 C :    0.046816   -0.015464
  51 C :   -0.101408    0.029677
  52 C :    0.047483   -0.015460
  53 C :    0.035935    0.027106
  54 H :   -0.025800   -0.000725
  55 H :   -0.032269    0.000612
  56 H :   -0.034186   -0.001114
  57 H :   -0.036099   -0.001172
  58 H :   -0.032669    0.000612
  59 C :    0.647080   -0.010032
  60 C :   -0.562417    0.018145
  61 C :    0.647309    0.003704
  62 C :   -0.561568   -0.006781
Sum of atomic charges         :   -0.0000000

LOEWDIN ATOMIC CHARGES AND SPIN POPULATIONS
-------------------------------------------
   0 C :   -0.023678    0.072597
   1 C :   -0.012582   -0.030599
   2 C :   -0.011158    0.016970
   3 C :   -0.039221    0.158787
   4 C :   -0.039438   -0.071790
   5 C :    0.011162    0.166923
   6 C :   -0.052637   -0.058769
   7 C :   -0.004655    0.170668
   8 C :   -0.007186   -0.064002
   9 H :    0.028687    0.000881
  10 H :    0.030062   -0.000451
  11 C :    0.013981    0.569069
  12 H :    0.021520    0.003340
  13 C :   -0.054456    0.005389
  14 H :    0.034804    0.024292
  15 H :    0.034795    0.024267
  16 C :   -0.046058    0.001141
  17 H :    0.025743    0.000290
  18 H :    0.025736    0.000289
  19 C :   -0.067475   -0.000043
  20 H :    0.025808    0.000243
  21 H :    0.025809    0.000244
  22 C :   -0.035604    0.002142
  23 H :    0.039020    0.007747
  24 H :    0.039040    0.007770
  25 C :   -0.043413    0.000151
  26 H :    0.024699    0.000053
  27 H :    0.024705    0.000054
  28 C :   -0.047213    0.000018
  29 H :    0.023975    0.000088
  30 H :    0.023976    0.000088
  31 C :   -0.067441   -0.000038
  32 H :    0.025434    0.000016
  33 H :    0.025431    0.000016
  34 C :   -0.023809   -0.033602
  35 H :    0.028691   -0.000110
  36 H :    0.027805   -0.000007
  37 C :   -0.049297    0.005422
  38 C :    0.000506   -0.008356
  39 C :    0.001453    0.003731
  40 C :   -0.051924   -0.008429
  41 C :    0.001329    0.003726
  42 C :   -0.000422   -0.008343
  43 H :    0.024039   -0.000015
  44 H :    0.034165    0.000019
  45 H :    0.033001   -0.000015
  46 H :    0.032950   -0.000020
  47 H :    0.034230    0.000019
  48 C :   -0.049249   -0.012217
  49 C :   -0.001425    0.020595
  50 C :    0.000889   -0.009459
  51 C :   -0.052924    0.021667
  52 C :    0.001060   -0.009443
  53 C :   -0.000006    0.020665
  54 H :    0.023750    0.000030
  55 H :    0.034011   -0.000040
  56 H :    0.032328    0.000025
  57 H :    0.032712    0.000022
  58 H :    0.033952   -0.000041
  59 C :   -0.007070   -0.004260
  60 C :   -0.043611    0.014493
  61 C :   -0.007033    0.001550
  62 C :   -0.042271   -0.005448

  Mayer bond orders larger than 0.100000
B(  0-C ,  1-C ) :   1.6759 B(  0-C ,  3-C ) :  -0.1100 B(  0-C , 48-C ) :   0.9102
B(  1-C ,  3-C ) :   0.8821 B(  1-C , 48-C ) :  -0.1792 B(  2-C ,  6-C ) :   0.8816
B(  2-C , 34-C ) :   1.7194 B(  2-C , 37-C ) :  -0.1721 B(  3-C ,  4-C ) :   1.2774
B(  3-C ,  8-C ) :   1.3960 B(  3-C , 48-C ) :   0.1084 B(  4-C ,  5-C ) :   1.2904
B(  4-C , 11-C ) :   1.3828 B(  5-C ,  6-C ) :   1.4480 B(  5-C ,  9-H ) :   0.9176
B(  6-C ,  7-C ) :   1.3417 B(  6-C , 34-C ) :  -0.1078 B(  6-C , 37-C ) :   0.1001
B(  7-C ,  8-C ) :   1.4311 B(  7-C , 22-C ) :   1.0956 B(  8-C , 10-H ) :   0.9200
B( 11-C , 12-H ) :   0.8985 B( 11-C , 13-C ) :   1.0844 B( 13-C , 14-H ) :   0.9113
B( 13-C , 15-H ) :   0.9113 B( 13-C , 16-C ) :   1.0712 B( 16-C , 17-H ) :   0.9438
B( 16-C , 18-H ) :   0.9438 B( 16-C , 19-C ) :   1.1067 B( 19-C , 20-H ) :   0.9653
B( 19-C , 21-H ) :   0.9653 B( 19-C , 35-H ) :   0.9607 B( 22-C , 23-H ) :   0.8956
B( 22-C , 24-H ) :   0.8956 B( 22-C , 25-C ) :   1.1046 B( 25-C , 26-H ) :   0.9292
B( 25-C , 27-H ) :   0.9293 B( 25-C , 28-C ) :   1.0746 B( 28-C , 29-H ) :   0.9410
B( 28-C , 30-H ) :   0.9410 B( 28-C , 31-C ) :   1.1063 B( 31-C , 32-H ) :   0.9662
B( 31-C , 33-H ) :   0.9662 B( 31-C , 36-H ) :   0.9616 B( 34-C , 37-C ) :   0.9070
B( 37-C , 38-C ) :   1.4252 B( 37-C , 42-C ) :   1.4210 B( 38-C , 39-C ) :   1.4709
B( 38-C , 45-H ) :   0.9383 B( 39-C , 40-C ) :   1.4100 B( 39-C , 47-H ) :   0.9379
B( 40-C , 41-C ) :   1.4099 B( 40-C , 61-C ) :   0.9044 B( 41-C , 42-C ) :   1.4711
B( 41-C , 44-H ) :   0.9379 B( 42-C , 46-H ) :   0.9386 B( 43-H , 62-C ) :   1.1119
B( 48-C , 49-C ) :   1.4186 B( 48-C , 53-C ) :   1.4204 B( 49-C , 50-C ) :   1.4731
B( 49-C , 56-H ) :   0.9386 B( 50-C , 51-C ) :   1.4075 B( 50-C , 58-H ) :   0.9379
B( 51-C , 52-C ) :   1.4080 B( 51-C , 59-C ) :   0.9056 B( 52-C , 53-C ) :   1.4739
B( 52-C , 55-H ) :   0.9377 B( 53-C , 57-H ) :   0.9380 B( 54-H , 60-C ) :   1.1119
B( 59-C , 60-C ) :   2.1536 B( 61-C , 62-C ) :   2.1540

FINAL SINGLE POINT ENERGY     -1312.049095199345

DIPOLE MOMENT
-------------
                                X             Y             Z
Electronic contribution:      0.39421      -1.96367       0.00827
Nuclear contribution   :     -0.55902       1.91830      -0.00854
                        -----------------------------------------
Total Dipole Moment    :     -0.16481      -0.04538      -0.00027
                        -----------------------------------------
Magnitude (a.u.)       :      0.17094
Magnitude (Debye)      :      0.43449

Rotational constants in cm-1:     0.005920     0.001229     0.001019
Rotational constants in MHz :   177.462640    36.836715    30.545296

CHEMICAL SHIELDING SUMMARY (ppm)  --  Orbital contribution
----------------------------------------------------------

  Nucleus  Element    Isotropic     Anisotropy
  -------  -------  ------------   ------------
      9       H           24.417         11.734
     10       H           24.490         12.615
     12       H           25.247         11.471
     14       H           28.942          4.388
     15       H           28.941          4.390
     17       H           29.623          6.587
     18       H           29.623          6.592
     20       H           30.291          7.873
     21       H           30.290          7.870
     23       H           28.670          5.898
     24       H           28.672          5.876
     26       H           29.795          4.882
     27       H           29.797          4.874
     29       H           29.853          6.317
     30       H           29.853          6.316
     32       H           30.280          7.871
     33       H           30.280          7.872
     35       H           30.061         10.118
     36       H           30.073         10.326
     43       H           28.335         10.781
     44       H           24.067          7.227
     45       H           24.114          7.689
     46       H           24.101          7.820
     47       H           24.057          6.913
     54       H           28.333         10.746
     55       H           24.070          6.968
     56       H           24.144          7.602
     57       H           24.136          7.618
     58       H           24.071          7.123

                             ****ORCA TERMINATED NORMALLY****
TOTAL RUN TIME: 0 days 3 hours 47 minutes 25 seconds 646 msec
