                         Program Version 5.0.4 -  RELEASE  -
|  1> ! B3LYP cc-pVDZ AUTOAUX
|  2> %pal nprocs 16 end
|  3> *XYZFile 0 2 opt.xyz
|  4> %EPRNMR
|  5>         GTENSOR   TRUE
|  6>         NUCLEI    = ALL H {SHIFT, AISO, ADIP, AORB}
|  7>         ORI       GIAO
|  8> END
|  9>
| 10>                          ****END OF INPUT****

CARTESIAN COORDINATES (ANGSTROEM)
---------------------------------
  C     12.367468   -0.026690   -0.004521
  C     11.143536   -0.068421   -0.003249
  C      5.470105   -0.000456   -0.000953
  C      9.724522   -0.088645   -0.002867
  C      8.990628   -1.335024   -0.006403
  C      7.570759   -1.236349   -0.005487
  C      6.897637   -0.011889   -0.001450
  C      7.634424    1.217416    0.002056
  C      9.026112    1.135702    0.001259
  H      6.974675   -2.149130   -0.008114
  H      9.619812    2.049654    0.003881
  C      9.646865   -2.583921   -0.010645
  H     10.739981   -2.573932   -0.011197
  C      8.960510   -3.917165   -0.014594
  H      8.287887   -4.000132    0.864048
  H      8.286468   -3.994223   -0.892681
  C      9.932017   -5.104805   -0.019413
  H     10.591664   -5.026394   -0.902868
  H     10.593459   -5.032110    0.863189
  C      9.223189   -6.460465   -0.023106
  H      8.579052   -6.573687   -0.912248
  H      8.580972   -6.579530    0.866660
  C      6.888617    2.535280    0.006628
  H      6.209492    2.550134   -0.866458
  H      6.212355    2.545704    0.882021
  C      7.733771    3.811741    0.008515
  H      8.398339    3.820953    0.891977
  H      8.396097    3.824967   -0.876584
  C      6.878227    5.084572    0.012531
  H      6.210709    5.076758   -0.869130
  H      6.212980    5.072748    0.895865
  C      7.710095    6.369491    0.014397
  H      8.360072    6.427193   -0.875761
  H      8.362497    6.423053    0.903036
  C      4.247577    0.004948    0.000113
  H      9.945336   -7.292652   -0.026626
  H      7.068970    7.265890    0.017359
  C      2.821946    0.006500    0.000494
  C      2.097893   -1.206838   -0.000235
  C      0.707780   -1.204952    0.000050
  C     -0.010741    0.009504    0.001091
  C      0.710352    1.222515    0.001864
  C      2.100373    1.221345    0.001582
  H     -3.729592    0.014614    0.001756
  H      0.163384    2.167010    0.002651
  H      2.643820   -2.151876   -0.001021
  H      2.647986    2.165427    0.002150
  H      0.158864   -2.148310   -0.000515
  C     13.789722    0.031477   -0.005118
  C     14.565302   -1.150711   -0.007168
  C     15.953740   -1.090712   -0.007603
  C     16.621353    0.152770   -0.006014
  C     15.849687    1.334610   -0.003972
  C     14.461312    1.275873   -0.003524
  H     20.336530    0.314151   -0.006977
  H     16.356949    2.301040   -0.002743
  H     14.060641   -2.118439   -0.008361
  H     13.874663    2.196192   -0.001939
  H     16.541337   -2.010509   -0.009127
  C     18.050568    0.214344   -0.006425
  C     19.265095    0.266906   -0.006700
  C     -1.441545    0.011220    0.001350
  C     -2.657087    0.013045    0.001570

 Total Charge           Charge          ....    0
 Multiplicity           Mult            ....    2
 Number of Electrons    NEL             ....  233
 Basis Dimension        Dim             ....  621

ORBITAL ENERGIES
----------------
                 SPIN UP ORBITALS
  NO   OCC          E(Eh)            E(eV)
   0   1.0000     -10.224029      -278.2100
   1   1.0000     -10.222773      -278.1758
   2   1.0000     -10.222247      -278.1615
   3   1.0000     -10.221304      -278.1358
   4   1.0000     -10.217774      -278.0398
   5   1.0000     -10.215799      -277.9860
   6   1.0000     -10.205890      -277.7164
   7   1.0000     -10.204414      -277.6762
   8   1.0000     -10.204335      -277.6741
   9   1.0000     -10.203799      -277.6595
  10   1.0000     -10.203686      -277.6564
  11   1.0000     -10.202898      -277.6350
  12   1.0000     -10.202713      -277.6299
  13   1.0000     -10.202393      -277.6212
  14   1.0000     -10.202183      -277.6155
  15   1.0000     -10.201943      -277.6090
  16   1.0000     -10.198410      -277.5128
  17   1.0000     -10.196058      -277.4488
  18   1.0000     -10.195804      -277.4419
  19   1.0000     -10.195258      -277.4271
  20   1.0000     -10.194414      -277.4041
  21   1.0000     -10.193994      -277.3927
  22   1.0000     -10.193307      -277.3740
  23   1.0000     -10.193119      -277.3689
  24   1.0000     -10.191944      -277.3369
  25   1.0000     -10.191181      -277.3161
  26   1.0000     -10.190804      -277.3059
  27   1.0000     -10.190030      -277.2848
  28   1.0000     -10.189563      -277.2721
  29   1.0000     -10.186615      -277.1919
  30   1.0000     -10.184410      -277.1319
  31   1.0000     -10.184128      -277.1242
  32   1.0000     -10.179253      -276.9915
  33   1.0000     -10.177527      -276.9446
  34   1.0000      -0.877879       -23.8883
  35   1.0000      -0.875385       -23.8204
  36   1.0000      -0.873914       -23.7804
  37   1.0000      -0.824147       -22.4262
  38   1.0000      -0.809074       -22.0160
  39   1.0000      -0.806201       -21.9378
  40   1.0000      -0.798924       -21.7398
  41   1.0000      -0.793154       -21.5828
  42   1.0000      -0.770995       -20.9798
  43   1.0000      -0.759759       -20.6741
  44   1.0000      -0.758720       -20.6458
  45   1.0000      -0.758419       -20.6376
  46   1.0000      -0.746288       -20.3075
  47   1.0000      -0.736973       -20.0540
  48   1.0000      -0.725990       -19.7552
  49   1.0000      -0.712962       -19.4007
  50   1.0000      -0.700414       -19.0592
  51   1.0000      -0.660763       -17.9803
  52   1.0000      -0.658116       -17.9082
  53   1.0000      -0.642371       -17.4798
  54   1.0000      -0.623393       -16.9634
  55   1.0000      -0.619296       -16.8519
  56   1.0000      -0.618624       -16.8336
  57   1.0000      -0.617706       -16.8086
  58   1.0000      -0.594913       -16.1884
  59   1.0000      -0.582813       -15.8591
  60   1.0000      -0.564747       -15.3676
  61   1.0000      -0.553286       -15.0557
  62   1.0000      -0.552001       -15.0207
  63   1.0000      -0.542813       -14.7707
  64   1.0000      -0.534299       -14.5390
  65   1.0000      -0.510475       -13.8907
  66   1.0000      -0.507325       -13.8050
  67   1.0000      -0.496990       -13.5238
  68   1.0000      -0.492475       -13.4009
  69   1.0000      -0.482324       -13.1247
  70   1.0000      -0.473366       -12.8809
  71   1.0000      -0.473276       -12.8785
  72   1.0000      -0.471575       -12.8322
  73   1.0000      -0.464985       -12.6529
  74   1.0000      -0.445710       -12.1284
  75   1.0000      -0.444105       -12.0847
  76   1.0000      -0.436329       -11.8731
  77   1.0000      -0.432691       -11.7741
  78   1.0000      -0.431253       -11.7350
  79   1.0000      -0.429824       -11.6961
  80   1.0000      -0.428850       -11.6696
  81   1.0000      -0.424734       -11.5576
  82   1.0000      -0.414372       -11.2756
  83   1.0000      -0.401923       -10.9369
  84   1.0000      -0.401788       -10.9332
  85   1.0000      -0.394801       -10.7431
  86   1.0000      -0.393828       -10.7166
  87   1.0000      -0.386332       -10.5126
  88   1.0000      -0.385298       -10.4845
  89   1.0000      -0.382109       -10.3977
  90   1.0000      -0.381602       -10.3839
  91   1.0000      -0.368060       -10.0154
  92   1.0000      -0.361239        -9.8298
  93   1.0000      -0.360263        -9.8033
  94   1.0000      -0.359124        -9.7723
  95   1.0000      -0.358207        -9.7473
  96   1.0000      -0.345089        -9.3904
  97   1.0000      -0.343145        -9.3375
  98   1.0000      -0.336092        -9.1455
  99   1.0000      -0.335341        -9.1251
 100   1.0000      -0.331365        -9.0169
 101   1.0000      -0.330303        -8.9880
 102   1.0000      -0.326957        -8.8970
 103   1.0000      -0.325706        -8.8629
 104   1.0000      -0.312140        -8.4938
 105   1.0000      -0.285684        -7.7739
 106   1.0000      -0.280183        -7.6242
 107   1.0000      -0.278872        -7.5885
 108   1.0000      -0.275152        -7.4873
 109   1.0000      -0.273500        -7.4423
 110   1.0000      -0.271739        -7.3944
 111   1.0000      -0.266805        -7.2601
 112   1.0000      -0.265988        -7.2379
 113   1.0000      -0.260241        -7.0815
 114   1.0000      -0.230408        -6.2697
 115   1.0000      -0.209826        -5.7096
 116   1.0000      -0.173933        -4.7330
 117   0.0000      -0.076367        -2.0781
 118   0.0000      -0.049443        -1.3454
 119   0.0000      -0.016668        -0.4536
 120   0.0000      -0.015497        -0.4217
 121   0.0000      -0.014437        -0.3929

                 SPIN DOWN ORBITALS
  NO   OCC          E(Eh)            E(eV)
   0   1.0000     -10.223869      -278.2056
   1   1.0000     -10.222938      -278.1803
   2   1.0000     -10.222633      -278.1720
   3   1.0000     -10.220857      -278.1236
   4   1.0000     -10.217383      -278.0291
   5   1.0000     -10.214439      -277.9490
   6   1.0000     -10.204404      -277.6760
   7   1.0000     -10.204382      -277.6754
   8   1.0000     -10.204316      -277.6735
   9   1.0000     -10.203886      -277.6619
  10   1.0000     -10.203782      -277.6590
  11   1.0000     -10.202951      -277.6364
  12   1.0000     -10.202820      -277.6328
  13   1.0000     -10.202534      -277.6251
  14   1.0000     -10.202156      -277.6148
  15   1.0000     -10.201894      -277.6077
  16   1.0000     -10.195764      -277.4408
  17   1.0000     -10.195310      -277.4285
  18   1.0000     -10.195277      -277.4276
  19   1.0000     -10.194870      -277.4165
  20   1.0000     -10.194538      -277.4075
  21   1.0000     -10.194063      -277.3946
  22   1.0000     -10.193266      -277.3729
  23   1.0000     -10.191849      -277.3343
  24   1.0000     -10.191448      -277.3234
  25   1.0000     -10.190883      -277.3080
  26   1.0000     -10.190229      -277.2902
  27   1.0000     -10.189336      -277.2659
  28   1.0000     -10.186576      -277.1908
  29   1.0000     -10.186220      -277.1811
  30   1.0000     -10.184406      -277.1318
  31   1.0000     -10.184128      -277.1242
  32   1.0000     -10.179260      -276.9918
  33   1.0000     -10.177528      -276.9446
  34   1.0000      -0.876384       -23.8476
  35   1.0000      -0.874550       -23.7977
  36   1.0000      -0.872659       -23.7463
  37   1.0000      -0.819824       -22.3085
  38   1.0000      -0.807831       -21.9822
  39   1.0000      -0.805423       -21.9167
  40   1.0000      -0.796934       -21.6857
  41   1.0000      -0.792105       -21.5543
  42   1.0000      -0.768999       -20.9255
  43   1.0000      -0.759892       -20.6777
  44   1.0000      -0.758291       -20.6341
  45   1.0000      -0.758087       -20.6286
  46   1.0000      -0.745747       -20.2928
  47   1.0000      -0.733780       -19.9672
  48   1.0000      -0.724791       -19.7226
  49   1.0000      -0.711985       -19.3741
  50   1.0000      -0.698224       -18.9997
  51   1.0000      -0.659262       -17.9394
  52   1.0000      -0.655663       -17.8415
  53   1.0000      -0.642105       -17.4726
  54   1.0000      -0.622111       -16.9285
  55   1.0000      -0.619380       -16.8542
  56   1.0000      -0.617564       -16.8048
  57   1.0000      -0.613461       -16.6931
  58   1.0000      -0.594013       -16.1639
  59   1.0000      -0.581246       -15.8165
  60   1.0000      -0.562036       -15.2938
  61   1.0000      -0.553364       -15.0578
  62   1.0000      -0.551752       -15.0139
  63   1.0000      -0.542206       -14.7542
  64   1.0000      -0.533433       -14.5154
  65   1.0000      -0.507652       -13.8139
  66   1.0000      -0.506274       -13.7764
  67   1.0000      -0.496643       -13.5143
  68   1.0000      -0.491701       -13.3799
  69   1.0000      -0.480959       -13.0876
  70   1.0000      -0.473288       -12.8788
  71   1.0000      -0.472509       -12.8576
  72   1.0000      -0.471346       -12.8260
  73   1.0000      -0.461526       -12.5588
  74   1.0000      -0.445677       -12.1275
  75   1.0000      -0.443902       -12.0792
  76   1.0000      -0.434280       -11.8174
  77   1.0000      -0.431356       -11.7378
  78   1.0000      -0.431265       -11.7353
  79   1.0000      -0.429715       -11.6931
  80   1.0000      -0.427651       -11.6370
  81   1.0000      -0.422136       -11.4869
  82   1.0000      -0.413894       -11.2626
  83   1.0000      -0.400899       -10.9090
  84   1.0000      -0.396365       -10.7856
  85   1.0000      -0.394279       -10.7289
  86   1.0000      -0.391115       -10.6428
  87   1.0000      -0.386434       -10.5154
  88   1.0000      -0.384890       -10.4734
  89   1.0000      -0.379392       -10.3238
  90   1.0000      -0.378635       -10.3032
  91   1.0000      -0.366939        -9.9849
  92   1.0000      -0.361169        -9.8279
  93   1.0000      -0.359807        -9.7909
  94   1.0000      -0.358568        -9.7571
  95   1.0000      -0.355202        -9.6655
  96   1.0000      -0.344671        -9.3790
  97   1.0000      -0.340919        -9.2769
  98   1.0000      -0.334842        -9.1115
  99   1.0000      -0.333989        -9.0883
 100   1.0000      -0.329966        -8.9788
 101   1.0000      -0.329823        -8.9749
 102   1.0000      -0.326207        -8.8765
 103   1.0000      -0.325357        -8.8534
 104   1.0000      -0.310068        -8.4374
 105   1.0000      -0.282418        -7.6850
 106   1.0000      -0.280214        -7.6250
 107   1.0000      -0.278768        -7.5857
 108   1.0000      -0.273360        -7.4385
 109   1.0000      -0.271328        -7.3832
 110   1.0000      -0.267188        -7.2706
 111   1.0000      -0.265044        -7.2122
 112   1.0000      -0.262319        -7.1381
 113   1.0000      -0.257652        -7.0111
 114   1.0000      -0.229009        -6.2316
 115   1.0000      -0.203051        -5.5253
 116   0.0000      -0.091509        -2.4901
 117   0.0000      -0.067709        -1.8424
 118   0.0000      -0.047480        -1.2920
 119   0.0000      -0.016993        -0.4624
 120   0.0000      -0.014708        -0.4002

MULLIKEN ATOMIC CHARGES AND SPIN POPULATIONS
--------------------------------------------
   0 C :    0.184161    0.099561
   1 C :    0.250472   -0.066834
   2 C :    0.239343    0.031011
   3 C :   -0.188660    0.221480
   4 C :    0.071505   -0.168302
   5 C :   -0.027554    0.220836
   6 C :   -0.152552   -0.105538
   7 C :   -0.086474    0.230976
   8 C :    0.009290   -0.116984
   9 H :   -0.052316   -0.009157
  10 H :   -0.053777    0.004233
  11 C :   -0.099375    0.693773
  12 H :   -0.025889   -0.030186
  13 C :    0.033881   -0.047562
  14 H :    0.029964    0.031131
  15 H :    0.029985    0.031111
  16 C :   -0.039768    0.002241
  17 H :    0.012912    0.000456
  18 H :    0.012906    0.000455
  19 C :    0.006020   -0.000173
  20 H :    0.018042    0.000151
  21 H :    0.018048    0.000151
  22 C :    0.038746   -0.018363
  23 H :    0.032469    0.009836
  24 H :    0.032489    0.009868
  25 C :   -0.034293    0.000850
  26 H :    0.017177    0.000168
  27 H :    0.017124    0.000171
  28 C :   -0.025312    0.000026
  29 H :    0.005853    0.000052
  30 H :    0.005864    0.000052
  31 C :    0.003269   -0.000079
  32 H :    0.017672    0.000023
  33 H :    0.017662    0.000023
  34 C :    0.169730   -0.046562
  35 H :    0.014283   -0.000199
  36 H :    0.013401   -0.000005
  37 C :   -0.242925    0.011112
  38 C :    0.035880   -0.010604
  39 C :    0.047362    0.005760
  40 C :   -0.100969   -0.011175
  41 C :    0.047009    0.005754
  42 C :    0.033923   -0.010579
  43 H :   -0.025219    0.000246
  44 H :   -0.031783   -0.000209
  45 H :   -0.035318    0.000429
  46 H :   -0.034240    0.000405
  47 H :   -0.031634   -0.000209
  48 C :   -0.246975   -0.025585
  49 C :    0.030360    0.026849
  50 C :    0.046805   -0.015311
  51 C :   -0.101399    0.029498
  52 C :    0.047494   -0.015308
  53 C :    0.035928    0.026947
  54 H :   -0.025793   -0.000716
  55 H :   -0.032265    0.000600
  56 H :   -0.034176   -0.001099
  57 H :   -0.036090   -0.001157
  58 H :   -0.032666    0.000600
  59 C :    0.647084   -0.009863
  60 C :   -0.562426    0.017979
  61 C :    0.647243    0.003409
  62 C :   -0.561505   -0.006467
Sum of atomic charges         :    0.0000000

LOEWDIN ATOMIC CHARGES AND SPIN POPULATIONS
-------------------------------------------
   0 C :   -0.023647    0.072420
   1 C :   -0.012616   -0.030445
   2 C :   -0.011197    0.016595
   3 C :   -0.039205    0.158627
   4 C :   -0.039428   -0.071684
   5 C :    0.011122    0.166757
   6 C :   -0.052657   -0.058599
   7 C :   -0.004657    0.170485
   8 C :   -0.007170   -0.063870
   9 H :    0.028694    0.000895
  10 H :    0.030067   -0.000456
  11 C :    0.013989    0.569153
  12 H :    0.021517    0.003348
  13 C :   -0.054460    0.005397
  14 H :    0.034797    0.024293
  15 H :    0.034797    0.024276
  16 C :   -0.046054    0.001139
  17 H :    0.025740    0.000290
  18 H :    0.025733    0.000289
  19 C :   -0.067462   -0.000043
  20 H :    0.025805    0.000243
  21 H :    0.025804    0.000244
  22 C :   -0.035585    0.002153
  23 H :    0.039010    0.007740
  24 H :    0.039041    0.007764
  25 C :   -0.043411    0.000150
  26 H :    0.024698    0.000053
  27 H :    0.024702    0.000054
  28 C :   -0.047213    0.000018
  29 H :    0.023973    0.000088
  30 H :    0.023977    0.000088
  31 C :   -0.067427   -0.000038
  32 H :    0.025427    0.000016
  33 H :    0.025424    0.000016
  34 C :   -0.023807   -0.033244
  35 H :    0.028693   -0.000110
  36 H :    0.027807   -0.000007
  37 C :   -0.049309    0.005225
  38 C :    0.000499   -0.008141
  39 C :    0.001462    0.003533
  40 C :   -0.051904   -0.008240
  41 C :    0.001337    0.003528
  42 C :   -0.000439   -0.008127
  43 H :    0.024039   -0.000020
  44 H :    0.034168    0.000025
  45 H :    0.033003   -0.000022
  46 H :    0.032952   -0.000027
  47 H :    0.034232    0.000025
  48 C :   -0.049238   -0.012127
  49 C :   -0.001435    0.020493
  50 C :    0.000892   -0.009366
  51 C :   -0.052919    0.021570
  52 C :    0.001065   -0.009350
  53 C :   -0.000019    0.020563
  54 H :    0.023752    0.000033
  55 H :    0.034015   -0.000043
  56 H :    0.032331    0.000029
  57 H :    0.032715    0.000026
  58 H :    0.033954   -0.000044
  59 C :   -0.007066   -0.004187
  60 C :   -0.043618    0.014392
  61 C :   -0.007036    0.001413
  62 C :   -0.042252   -0.005254

  Mayer bond orders larger than 0.100000
B(  0-C ,  1-C ) :   1.6759 B(  0-C ,  3-C ) :  -0.1100 B(  0-C , 48-C ) :   0.9102
B(  1-C ,  3-C ) :   0.8820 B(  1-C , 48-C ) :  -0.1792 B(  2-C ,  6-C ) :   0.8816
B(  2-C , 34-C ) :   1.7193 B(  2-C , 37-C ) :  -0.1722 B(  3-C ,  4-C ) :   1.2775
B(  3-C ,  8-C ) :   1.3960 B(  3-C , 48-C ) :   0.1084 B(  4-C ,  5-C ) :   1.2906
B(  4-C , 11-C ) :   1.3827 B(  5-C ,  6-C ) :   1.4480 B(  5-C ,  9-H ) :   0.9176
B(  6-C ,  7-C ) :   1.3418 B(  6-C , 34-C ) :  -0.1078 B(  6-C , 37-C ) :   0.1001
B(  7-C ,  8-C ) :   1.4311 B(  7-C , 22-C ) :   1.0956 B(  8-C , 10-H ) :   0.9200
B( 11-C , 12-H ) :   0.8985 B( 11-C , 13-C ) :   1.0844 B( 13-C , 14-H ) :   0.9113
B( 13-C , 15-H ) :   0.9113 B( 13-C , 16-C ) :   1.0712 B( 16-C , 17-H ) :   0.9438
B( 16-C , 18-H ) :   0.9438 B( 16-C , 19-C ) :   1.1067 B( 19-C , 20-H ) :   0.9653
B( 19-C , 21-H ) :   0.9653 B( 19-C , 35-H ) :   0.9607 B( 22-C , 23-H ) :   0.8956
B( 22-C , 24-H ) :   0.8956 B( 22-C , 25-C ) :   1.1046 B( 25-C , 26-H ) :   0.9292
B( 25-C , 27-H ) :   0.9293 B( 25-C , 28-C ) :   1.0746 B( 28-C , 29-H ) :   0.9410
B( 28-C , 30-H ) :   0.9410 B( 28-C , 31-C ) :   1.1064 B( 31-C , 32-H ) :   0.9662
B( 31-C , 33-H ) :   0.9662 B( 31-C , 36-H ) :   0.9616 B( 34-C , 37-C ) :   0.9069
B( 37-C , 38-C ) :   1.4253 B( 37-C , 42-C ) :   1.4209 B( 38-C , 39-C ) :   1.4709
B( 38-C , 45-H ) :   0.9383 B( 39-C , 40-C ) :   1.4100 B( 39-C , 47-H ) :   0.9379
B( 40-C , 41-C ) :   1.4099 B( 40-C , 61-C ) :   0.9045 B( 41-C , 42-C ) :   1.4711
B( 41-C , 44-H ) :   0.9379 B( 42-C , 46-H ) :   0.9386 B( 43-H , 62-C ) :   1.1119
B( 48-C , 49-C ) :   1.4186 B( 48-C , 53-C ) :   1.4204 B( 49-C , 50-C ) :   1.4731
B( 49-C , 56-H ) :   0.9386 B( 50-C , 51-C ) :   1.4075 B( 50-C , 58-H ) :   0.9379
B( 51-C , 52-C ) :   1.4080 B( 51-C , 59-C ) :   0.9056 B( 52-C , 53-C ) :   1.4739
B( 52-C , 55-H ) :   0.9377 B( 53-C , 57-H ) :   0.9380 B( 54-H , 60-C ) :   1.1119
B( 59-C , 60-C ) :   2.1536 B( 61-C , 62-C ) :   2.1542

FINAL SINGLE POINT ENERGY     -1312.049095863139

DIPOLE MOMENT
-------------
                                X             Y             Z
Electronic contribution:      0.39445      -1.96785       0.00380
Nuclear contribution   :     -0.55927       1.92253      -0.00390
                        -----------------------------------------
Total Dipole Moment    :     -0.16482      -0.04532      -0.00010
                        -----------------------------------------
Magnitude (a.u.)       :      0.17094
Magnitude (Debye)      :      0.43448

Rotational constants in cm-1:     0.005920     0.001229     0.001019
Rotational constants in MHz :   177.478005    36.835670    30.545032

CHEMICAL SHIELDING SUMMARY (ppm)  --  Orbital contribution
----------------------------------------------------------

  Nucleus  Element    Isotropic     Anisotropy
  -------  -------  ------------   ------------
      9       H           24.420         11.730
     10       H           24.488         12.616
     12       H           25.244         11.476
     14       H           28.941          4.387
     15       H           28.941          4.388
     17       H           29.622          6.589
     18       H           29.622          6.592
     20       H           30.290          7.871
     21       H           30.290          7.871
     23       H           28.672          5.898
     24       H           28.673          5.874
     26       H           29.795          4.882
     27       H           29.797          4.875
     29       H           29.852          6.321
     30       H           29.852          6.317
     32       H           30.281          7.872
     33       H           30.281          7.874
     35       H           30.062         10.118
     36       H           30.073         10.326
     43       H           28.335         10.780
     44       H           24.067          7.226
     45       H           24.114          7.691
     46       H           24.100          7.823
     47       H           24.057          6.912
     54       H           28.332         10.747
     55       H           24.069          6.969
     56       H           24.144          7.603
     57       H           24.137          7.616
     58       H           24.069          7.126

                             ****ORCA TERMINATED NORMALLY****
TOTAL RUN TIME: 0 days 3 hours 47 minutes 11 seconds 551 msec
