                         Program Version 5.0.4 -  RELEASE  -
|  1> ! B3LYP EPR-II AUTOAUX
|  2> %pal nprocs 16 end
|  3> *XYZFile 0 2 opt.xyz
|  4> %EPRNMR
|  5>         GTENSOR   TRUE
|  6>         NUCLEI    = ALL H {SHIFT, AISO, ADIP, AORB}
|  7>         ORI       GIAO
|  8> END
|  9>
| 10>                          ****END OF INPUT****

CARTESIAN COORDINATES (ANGSTROEM)
---------------------------------
  C     12.367468   -0.026690   -0.004521
  C     11.143536   -0.068421   -0.003249
  C      5.470105   -0.000456   -0.000953
  C      9.724522   -0.088645   -0.002867
  C      8.990628   -1.335024   -0.006403
  C      7.570759   -1.236349   -0.005487
  C      6.897637   -0.011889   -0.001450
  C      7.634424    1.217416    0.002056
  C      9.026112    1.135702    0.001259
  H      6.974675   -2.149130   -0.008114
  H      9.619812    2.049654    0.003881
  C      9.646865   -2.583921   -0.010645
  H     10.739981   -2.573932   -0.011197
  C      8.960510   -3.917165   -0.014594
  H      8.287887   -4.000132    0.864048
  H      8.286468   -3.994223   -0.892681
  C      9.932017   -5.104805   -0.019413
  H     10.591664   -5.026394   -0.902868
  H     10.593459   -5.032110    0.863189
  C      9.223189   -6.460465   -0.023106
  H      8.579052   -6.573687   -0.912248
  H      8.580972   -6.579530    0.866660
  C      6.888617    2.535280    0.006628
  H      6.209492    2.550134   -0.866458
  H      6.212355    2.545704    0.882021
  C      7.733771    3.811741    0.008515
  H      8.398339    3.820953    0.891977
  H      8.396097    3.824967   -0.876584
  C      6.878227    5.084572    0.012531
  H      6.210709    5.076758   -0.869130
  H      6.212980    5.072748    0.895865
  C      7.710095    6.369491    0.014397
  H      8.360072    6.427193   -0.875761
  H      8.362497    6.423053    0.903036
  C      4.247577    0.004948    0.000113
  H      9.945336   -7.292652   -0.026626
  H      7.068970    7.265890    0.017359
  C      2.821946    0.006500    0.000494
  C      2.097893   -1.206838   -0.000235
  C      0.707780   -1.204952    0.000050
  C     -0.010741    0.009504    0.001091
  C      0.710352    1.222515    0.001864
  C      2.100373    1.221345    0.001582
  H     -3.729592    0.014614    0.001756
  H      0.163384    2.167010    0.002651
  H      2.643820   -2.151876   -0.001021
  H      2.647986    2.165427    0.002150
  H      0.158864   -2.148310   -0.000515
  C     13.789722    0.031477   -0.005118
  C     14.565302   -1.150711   -0.007168
  C     15.953740   -1.090712   -0.007603
  C     16.621353    0.152770   -0.006014
  C     15.849687    1.334610   -0.003972
  C     14.461312    1.275873   -0.003524
  H     20.336530    0.314151   -0.006977
  H     16.356949    2.301040   -0.002743
  H     14.060641   -2.118439   -0.008361
  H     13.874663    2.196192   -0.001939
  H     16.541337   -2.010509   -0.009127
  C     18.050568    0.214344   -0.006425
  C     19.265095    0.266906   -0.006700
  C     -1.441545    0.011220    0.001350
  C     -2.657087    0.013045    0.001570

 Total Charge           Charge          ....    0
 Multiplicity           Mult            ....    2
 Number of Electrons    NEL             ....  233
 Basis Dimension        Dim             ....  781

ORBITAL ENERGIES
----------------
                 SPIN UP ORBITALS
  NO   OCC          E(Eh)            E(eV)
   0   1.0000     -10.235522      -278.5227
   1   1.0000     -10.235082      -278.5107
   2   1.0000     -10.233819      -278.4764
   3   1.0000     -10.233528      -278.4685
   4   1.0000     -10.227411      -278.3020
   5   1.0000     -10.225516      -278.2504
   6   1.0000     -10.214785      -277.9584
   7   1.0000     -10.213336      -277.9190
   8   1.0000     -10.213264      -277.9170
   9   1.0000     -10.212366      -277.8926
  10   1.0000     -10.212247      -277.8894
  11   1.0000     -10.211810      -277.8775
  12   1.0000     -10.211716      -277.8749
  13   1.0000     -10.211565      -277.8708
  14   1.0000     -10.211414      -277.8667
  15   1.0000     -10.211037      -277.8564
  16   1.0000     -10.210769      -277.8492
  17   1.0000     -10.209978      -277.8276
  18   1.0000     -10.208049      -277.7751
  19   1.0000     -10.206880      -277.7433
  20   1.0000     -10.205767      -277.7130
  21   1.0000     -10.205195      -277.6975
  22   1.0000     -10.204641      -277.6824
  23   1.0000     -10.203063      -277.6395
  24   1.0000     -10.201908      -277.6080
  25   1.0000     -10.201743      -277.6035
  26   1.0000     -10.200101      -277.5588
  27   1.0000     -10.193058      -277.3672
  28   1.0000     -10.191339      -277.3204
  29   1.0000     -10.187991      -277.2293
  30   1.0000     -10.185355      -277.1576
  31   1.0000     -10.185031      -277.1488
  32   1.0000     -10.177463      -276.9428
  33   1.0000     -10.175323      -276.8846
  34   1.0000      -0.878002       -23.8917
  35   1.0000      -0.876141       -23.8410
  36   1.0000      -0.874599       -23.7990
  37   1.0000      -0.823728       -22.4148
  38   1.0000      -0.809721       -22.0336
  39   1.0000      -0.807516       -21.9736
  40   1.0000      -0.797608       -21.7040
  41   1.0000      -0.793637       -21.5960
  42   1.0000      -0.770032       -20.9536
  43   1.0000      -0.760847       -20.7037
  44   1.0000      -0.760492       -20.6940
  45   1.0000      -0.759487       -20.6667
  46   1.0000      -0.748408       -20.3652
  47   1.0000      -0.736666       -20.0457
  48   1.0000      -0.727191       -19.7879
  49   1.0000      -0.714350       -19.4384
  50   1.0000      -0.699598       -19.0370
  51   1.0000      -0.661250       -17.9935
  52   1.0000      -0.658105       -17.9080
  53   1.0000      -0.643838       -17.5197
  54   1.0000      -0.624274       -16.9874
  55   1.0000      -0.620639       -16.8884
  56   1.0000      -0.619135       -16.8475
  57   1.0000      -0.618058       -16.8182
  58   1.0000      -0.594824       -16.1860
  59   1.0000      -0.582441       -15.8490
  60   1.0000      -0.564807       -15.3692
  61   1.0000      -0.555530       -15.1168
  62   1.0000      -0.554217       -15.0810
  63   1.0000      -0.544413       -14.8142
  64   1.0000      -0.535945       -14.5838
  65   1.0000      -0.511124       -13.9084
  66   1.0000      -0.508925       -13.8486
  67   1.0000      -0.498937       -13.5768
  68   1.0000      -0.493738       -13.4353
  69   1.0000      -0.481968       -13.1150
  70   1.0000      -0.473614       -12.8877
  71   1.0000      -0.473303       -12.8792
  72   1.0000      -0.471904       -12.8412
  73   1.0000      -0.465305       -12.6616
  74   1.0000      -0.447666       -12.1816
  75   1.0000      -0.446052       -12.1377
  76   1.0000      -0.436419       -11.8756
  77   1.0000      -0.433143       -11.7864
  78   1.0000      -0.432706       -11.7745
  79   1.0000      -0.431668       -11.7463
  80   1.0000      -0.428548       -11.6614
  81   1.0000      -0.424850       -11.5608
  82   1.0000      -0.414148       -11.2695
  83   1.0000      -0.402079       -10.9411
  84   1.0000      -0.401773       -10.9328
  85   1.0000      -0.395420       -10.7599
  86   1.0000      -0.394417       -10.7326
  87   1.0000      -0.387915       -10.5557
  88   1.0000      -0.386890       -10.5278
  89   1.0000      -0.382457       -10.4072
  90   1.0000      -0.381734       -10.3875
  91   1.0000      -0.367793       -10.0082
  92   1.0000      -0.363146        -9.8817
  93   1.0000      -0.361721        -9.8429
  94   1.0000      -0.359915        -9.7938
  95   1.0000      -0.358586        -9.7576
  96   1.0000      -0.345951        -9.4138
  97   1.0000      -0.342647        -9.3239
  98   1.0000      -0.336940        -9.1686
  99   1.0000      -0.335218        -9.1218
 100   1.0000      -0.331911        -9.0318
 101   1.0000      -0.329981        -8.9792
 102   1.0000      -0.326039        -8.8720
 103   1.0000      -0.325441        -8.8557
 104   1.0000      -0.313300        -8.5253
 105   1.0000      -0.287020        -7.8102
 106   1.0000      -0.282817        -7.6958
 107   1.0000      -0.281455        -7.6588
 108   1.0000      -0.275768        -7.5040
 109   1.0000      -0.274823        -7.4783
 110   1.0000      -0.273170        -7.4333
 111   1.0000      -0.268153        -7.2968
 112   1.0000      -0.267306        -7.2738
 113   1.0000      -0.261909        -7.1269
 114   1.0000      -0.232120        -6.3163
 115   1.0000      -0.211245        -5.7483
 116   1.0000      -0.174738        -4.7549
 117   0.0000      -0.078708        -2.1417
 118   0.0000      -0.052663        -1.4330
 119   0.0000      -0.021372        -0.5816
 120   0.0000      -0.020209        -0.5499
 121   0.0000      -0.017900        -0.4871

                 SPIN DOWN ORBITALS
  NO   OCC          E(Eh)            E(eV)
   0   1.0000     -10.235352      -278.5181
   1   1.0000     -10.235256      -278.5155
   2   1.0000     -10.234205      -278.4869
   3   1.0000     -10.233079      -278.4562
   4   1.0000     -10.227110      -278.2938
   5   1.0000     -10.224071      -278.2111
   6   1.0000     -10.214235      -277.9435
   7   1.0000     -10.213285      -277.9176
   8   1.0000     -10.213209      -277.9155
   9   1.0000     -10.212496      -277.8961
  10   1.0000     -10.212381      -277.8930
  11   1.0000     -10.211846      -277.8785
  12   1.0000     -10.211723      -277.8751
  13   1.0000     -10.211424      -277.8670
  14   1.0000     -10.211365      -277.8654
  15   1.0000     -10.210724      -277.8479
  16   1.0000     -10.210430      -277.8399
  17   1.0000     -10.210113      -277.8313
  18   1.0000     -10.208064      -277.7756
  19   1.0000     -10.206854      -277.7426
  20   1.0000     -10.205915      -277.7171
  21   1.0000     -10.204256      -277.6719
  22   1.0000     -10.203150      -277.6418
  23   1.0000     -10.202096      -277.6131
  24   1.0000     -10.201661      -277.6013
  25   1.0000     -10.201508      -277.5971
  26   1.0000     -10.193715      -277.3851
  27   1.0000     -10.192173      -277.3431
  28   1.0000     -10.191534      -277.3257
  29   1.0000     -10.187955      -277.2283
  30   1.0000     -10.185352      -277.1575
  31   1.0000     -10.185032      -277.1488
  32   1.0000     -10.177471      -276.9431
  33   1.0000     -10.175325      -276.8847
  34   1.0000      -0.877143       -23.8683
  35   1.0000      -0.875231       -23.8162
  36   1.0000      -0.872787       -23.7497
  37   1.0000      -0.819674       -22.3045
  38   1.0000      -0.808375       -21.9970
  39   1.0000      -0.806652       -21.9501
  40   1.0000      -0.795498       -21.6466
  41   1.0000      -0.792582       -21.5673
  42   1.0000      -0.768105       -20.9012
  43   1.0000      -0.760981       -20.7073
  44   1.0000      -0.760106       -20.6835
  45   1.0000      -0.759159       -20.6578
  46   1.0000      -0.747870       -20.3506
  47   1.0000      -0.734026       -19.9739
  48   1.0000      -0.725412       -19.7395
  49   1.0000      -0.713435       -19.4136
  50   1.0000      -0.697373       -18.9765
  51   1.0000      -0.660158       -17.9638
  52   1.0000      -0.655204       -17.8290
  53   1.0000      -0.643611       -17.5135
  54   1.0000      -0.623041       -16.9538
  55   1.0000      -0.620723       -16.8907
  56   1.0000      -0.618889       -16.8408
  57   1.0000      -0.612970       -16.6798
  58   1.0000      -0.593917       -16.1613
  59   1.0000      -0.580847       -15.8056
  60   1.0000      -0.562183       -15.2978
  61   1.0000      -0.555612       -15.1190
  62   1.0000      -0.553965       -15.0742
  63   1.0000      -0.543808       -14.7978
  64   1.0000      -0.535123       -14.5614
  65   1.0000      -0.508853       -13.8466
  66   1.0000      -0.507439       -13.8081
  67   1.0000      -0.498445       -13.5634
  68   1.0000      -0.492894       -13.4123
  69   1.0000      -0.480572       -13.0770
  70   1.0000      -0.473624       -12.8880
  71   1.0000      -0.472428       -12.8554
  72   1.0000      -0.471666       -12.8347
  73   1.0000      -0.461862       -12.5679
  74   1.0000      -0.447655       -12.1813
  75   1.0000      -0.445857       -12.1324
  76   1.0000      -0.434680       -11.8282
  77   1.0000      -0.433170       -11.7871
  78   1.0000      -0.431578       -11.7438
  79   1.0000      -0.430926       -11.7261
  80   1.0000      -0.427294       -11.6273
  81   1.0000      -0.422258       -11.4902
  82   1.0000      -0.413703       -11.2574
  83   1.0000      -0.400743       -10.9048
  84   1.0000      -0.396868       -10.7993
  85   1.0000      -0.394832       -10.7439
  86   1.0000      -0.391649       -10.6573
  87   1.0000      -0.388017       -10.5585
  88   1.0000      -0.386466       -10.5163
  89   1.0000      -0.379496       -10.3266
  90   1.0000      -0.378930       -10.3112
  91   1.0000      -0.366648        -9.9770
  92   1.0000      -0.363165        -9.8822
  93   1.0000      -0.361535        -9.8379
  94   1.0000      -0.358991        -9.7686
  95   1.0000      -0.355556        -9.6752
  96   1.0000      -0.345578        -9.4037
  97   1.0000      -0.340335        -9.2610
  98   1.0000      -0.334886        -9.1127
  99   1.0000      -0.334733        -9.1085
 100   1.0000      -0.330308        -8.9881
 101   1.0000      -0.329633        -8.9698
 102   1.0000      -0.325349        -8.8532
 103   1.0000      -0.325088        -8.8461
 104   1.0000      -0.311259        -8.4698
 105   1.0000      -0.284010        -7.7283
 106   1.0000      -0.282850        -7.6967
 107   1.0000      -0.281355        -7.6560
 108   1.0000      -0.274676        -7.4743
 109   1.0000      -0.272756        -7.4221
 110   1.0000      -0.268540        -7.3074
 111   1.0000      -0.266364        -7.2481
 112   1.0000      -0.262717        -7.1489
 113   1.0000      -0.259309        -7.0562
 114   1.0000      -0.230728        -6.2784
 115   1.0000      -0.204584        -5.5670
 116   0.0000      -0.092922        -2.5285
 117   0.0000      -0.070176        -1.9096
 118   0.0000      -0.050670        -1.3788
 119   0.0000      -0.021688        -0.5902
 120   0.0000      -0.019458        -0.5295

MULLIKEN ATOMIC CHARGES AND SPIN POPULATIONS
--------------------------------------------
   0 C :   -0.440546    0.095576
   1 C :   -0.383502   -0.066345
   2 C :   -0.386598    0.029140
   3 C :    0.508059    0.202398
   4 C :    0.379016   -0.135922
   5 C :   -0.451603    0.211225
   6 C :    0.569038   -0.090237
   7 C :    0.239659    0.217238
   8 C :   -0.391230   -0.108136
   9 H :    0.131196   -0.011442
  10 H :    0.132860    0.005076
  11 C :   -0.261924    0.686151
  12 H :    0.124923   -0.036283
  13 C :   -0.269458   -0.045260
  14 H :    0.150654    0.030588
  15 H :    0.150630    0.030570
  16 C :   -0.282756    0.002238
  17 H :    0.152655   -0.000173
  18 H :    0.152611   -0.000171
  19 C :   -0.507296   -0.000750
  20 H :    0.157586    0.000174
  21 H :    0.157593    0.000174
  22 C :   -0.353354   -0.016582
  23 H :    0.150006    0.010503
  24 H :    0.150127    0.010536
  25 C :   -0.268548    0.000908
  26 H :    0.139633    0.000173
  27 H :    0.139720    0.000173
  28 C :   -0.254182   -0.000218
  29 H :    0.141628    0.000042
  30 H :    0.141643    0.000042
  31 C :   -0.508643   -0.000084
  32 H :    0.158061    0.000025
  33 H :    0.158051    0.000025
  34 C :   -0.425700   -0.043724
  35 H :    0.145398   -0.000166
  36 H :    0.143174   -0.000005
  37 C :    0.664287    0.009813
  38 C :   -0.261689   -0.010598
  39 C :   -0.257817    0.005847
  40 C :    0.616815   -0.011037
  41 C :   -0.263174    0.005837
  42 C :   -0.250646   -0.010644
  43 H :    0.185542    0.000271
  44 H :    0.121992   -0.000279
  45 H :    0.120884    0.000549
  46 H :    0.120532    0.000550
  47 H :    0.122209   -0.000280
  48 C :    0.672525   -0.021237
  49 C :   -0.259617    0.025543
  50 C :   -0.259617   -0.014595
  51 C :    0.612043    0.028033
  52 C :   -0.259577   -0.014638
  53 C :   -0.257057    0.025880
  54 H :    0.185139   -0.000733
  55 H :    0.121717    0.000729
  56 H :    0.117537   -0.001335
  57 H :    0.120249   -0.001383
  58 H :    0.121615    0.000732
  59 C :   -0.060434   -0.008890
  60 C :   -0.501172    0.017753
  61 C :   -0.061080    0.003376
  62 C :   -0.499785   -0.006741
Sum of atomic charges         :    0.0000000

LOEWDIN ATOMIC CHARGES AND SPIN POPULATIONS
-------------------------------------------
   0 C :   -0.037422    0.071106
   1 C :   -0.024825   -0.029566
   2 C :   -0.022509    0.016795
   3 C :   -0.054843    0.158616
   4 C :   -0.067526   -0.070473
   5 C :    0.009481    0.167886
   6 C :   -0.068449   -0.058344
   7 C :   -0.041407    0.171052
   8 C :   -0.009839   -0.063731
   9 H :    0.061957    0.001052
  10 H :    0.063505   -0.000492
  11 C :   -0.009130    0.566778
  12 H :    0.059893    0.003917
  13 C :   -0.087400    0.003476
  14 H :    0.057044    0.024936
  15 H :    0.057036    0.024920
  16 C :   -0.093842    0.000960
  17 H :    0.044931   -0.000066
  18 H :    0.044922   -0.000066
  19 C :   -0.083721   -0.000126
  20 H :    0.036827    0.000212
  21 H :    0.036826    0.000213
  22 C :   -0.049130    0.001616
  23 H :    0.061889    0.008329
  24 H :    0.061908    0.008353
  25 C :   -0.084391    0.000187
  26 H :    0.047181    0.000006
  27 H :    0.047210    0.000006
  28 C :   -0.096219    0.000010
  29 H :    0.043468    0.000061
  30 H :    0.043473    0.000061
  31 C :   -0.084580   -0.000032
  32 H :    0.036580    0.000017
  33 H :    0.036579    0.000016
  34 C :   -0.035465   -0.033378
  35 H :    0.034948   -0.000082
  36 H :    0.034158   -0.000006
  37 C :   -0.068696    0.005420
  38 C :   -0.011915   -0.008401
  39 C :   -0.010480    0.003739
  40 C :   -0.074394   -0.008524
  41 C :   -0.010799    0.003733
  42 C :   -0.012274   -0.008387
  43 H :    0.049928   -0.000032
  44 H :    0.061382    0.000027
  45 H :    0.060564   -0.000026
  46 H :    0.060377   -0.000027
  47 H :    0.061438    0.000027
  48 C :   -0.068623   -0.012015
  49 C :   -0.013552    0.020335
  50 C :   -0.011225   -0.009322
  51 C :   -0.075336    0.021653
  52 C :   -0.010914   -0.009318
  53 C :   -0.012516    0.020526
  54 H :    0.049715    0.000073
  55 H :    0.061301   -0.000054
  56 H :    0.059511    0.000053
  57 H :    0.060407    0.000055
  58 H :    0.061239   -0.000055
  59 C :   -0.035714   -0.004045
  60 C :   -0.052186    0.014312
  61 C :   -0.035597    0.001484
  62 C :   -0.050758   -0.005448

  Mayer bond orders larger than 0.100000
B(  0-C ,  1-C ) :   2.2712 B(  0-C ,  3-C ) :   0.1075 B(  0-C , 48-C ) :   0.9754
B(  1-C ,  3-C ) :   0.7751 B(  2-C ,  6-C ) :   0.7319 B(  2-C , 34-C ) :   2.3269
B(  3-C ,  4-C ) :   1.2880 B(  3-C ,  7-C ) :   0.1114 B(  3-C ,  8-C ) :   1.4386
B(  4-C ,  5-C ) :   1.2211 B(  4-C ,  6-C ) :   0.1195 B(  4-C , 11-C ) :   1.2989
B(  5-C ,  6-C ) :   1.4992 B(  5-C ,  9-H ) :   0.9689 B(  6-C ,  7-C ) :   1.3458
B(  6-C ,  8-C ) :   0.1091 B(  6-C , 34-C ) :   0.1055 B(  7-C ,  8-C ) :   1.4158
B(  7-C , 22-C ) :   0.9646 B(  8-C , 10-H ) :   0.9709 B( 11-C , 12-H ) :   0.9827
B( 11-C , 13-C ) :   1.0005 B( 13-C , 14-H ) :   0.9548 B( 13-C , 15-H ) :   0.9548
B( 13-C , 16-C ) :   0.9824 B( 16-C , 17-H ) :   0.9719 B( 16-C , 18-H ) :   0.9719
B( 16-C , 19-C ) :   0.9622 B( 19-C , 20-H ) :   0.9727 B( 19-C , 21-H ) :   0.9727
B( 19-C , 35-H ) :   0.9670 B( 22-C , 23-H ) :   0.9543 B( 22-C , 24-H ) :   0.9547
B( 22-C , 25-C ) :   1.0254 B( 25-C , 26-H ) :   0.9606 B( 25-C , 27-H ) :   0.9607
B( 25-C , 28-C ) :   0.9883 B( 28-C , 29-H ) :   0.9710 B( 28-C , 30-H ) :   0.9710
B( 28-C , 31-C ) :   0.9549 B( 31-C , 32-H ) :   0.9730 B( 31-C , 33-H ) :   0.9730
B( 31-C , 36-H ) :   0.9668 B( 34-C , 37-C ) :   0.9592 B( 37-C , 38-C ) :   1.3827
B( 37-C , 39-C ) :   0.1082 B( 37-C , 41-C ) :   0.1067 B( 37-C , 42-C ) :   1.3755
B( 38-C , 39-C ) :   1.4960 B( 38-C , 45-H ) :   0.9770 B( 39-C , 40-C ) :   1.3674
B( 39-C , 47-H ) :   0.9743 B( 40-C , 41-C ) :   1.3713 B( 40-C , 61-C ) :   0.9151
B( 41-C , 42-C ) :   1.4978 B( 41-C , 44-H ) :   0.9753 B( 42-C , 46-H ) :   0.9761
B( 43-H , 62-C ) :   0.9816 B( 48-C , 49-C ) :   1.3721 B( 48-C , 50-C ) :   0.1061
B( 48-C , 52-C ) :   0.1070 B( 48-C , 53-C ) :   1.3693 B( 49-C , 50-C ) :   1.5001
B( 49-C , 56-H ) :   0.9769 B( 50-C , 51-C ) :   1.3684 B( 50-C , 58-H ) :   0.9751
B( 51-C , 52-C ) :   1.3668 B( 51-C , 59-C ) :   0.9174 B( 52-C , 53-C ) :   1.4987
B( 52-C , 55-H ) :   0.9744 B( 53-C , 57-H ) :   0.9773 B( 54-H , 60-C ) :   0.9818
B( 59-C , 60-C ) :   2.7782 B( 61-C , 62-C ) :   2.7801

FINAL SINGLE POINT ENERGY     -1312.127635482128

DIPOLE MOMENT
-------------
                                X             Y             Z
Electronic contribution:      0.38247      -1.97973       0.00373
Nuclear contribution   :     -0.55927       1.92253      -0.00390
                        -----------------------------------------
Total Dipole Moment    :     -0.17680      -0.05720      -0.00017
                        -----------------------------------------
Magnitude (a.u.)       :      0.18582
Magnitude (Debye)      :      0.47231

Rotational constants in cm-1:     0.005920     0.001229     0.001019
Rotational constants in MHz :   177.478005    36.835670    30.545032

CHEMICAL SHIELDING SUMMARY (ppm)  --  Orbital contribution
----------------------------------------------------------

  Nucleus  Element    Isotropic     Anisotropy
  -------  -------  ------------   ------------
      9       H           24.391         12.267
     10       H           24.499         13.187
     12       H           25.246         11.883
     14       H           29.128          4.575
     15       H           29.127          4.577
     17       H           29.842          6.761
     18       H           29.843          6.765
     20       H           30.707          8.016
     21       H           30.707          8.016
     23       H           28.806          6.076
     24       H           28.808          6.053
     26       H           29.984          5.006
     27       H           29.986          4.999
     29       H           30.086          6.377
     30       H           30.086          6.373
     32       H           30.667          8.019
     33       H           30.667          8.021
     35       H           30.420         10.214
     36       H           30.444         10.394
     43       H           28.556         10.920
     44       H           24.106          7.462
     45       H           24.163          7.909
     46       H           24.138          8.082
     47       H           24.092          7.134
     54       H           28.559         10.878
     55       H           24.108          7.197
     56       H           24.172          7.858
     57       H           24.178          7.843
     58       H           24.121          7.349

                             ****ORCA TERMINATED NORMALLY****
TOTAL RUN TIME: 0 days 4 hours 15 minutes 36 seconds 240 msec
