                         Program Version 5.0.4 -  RELEASE  -
|  1> ! B3LYP EPR-II AUTOAUX
|  2> %pal nprocs 16 end
|  3> *XYZFile 0 2 opt_EPRII.xyz
|  4> %EPRNMR
|  5>         GTENSOR   TRUE
|  6>         NUCLEI    = ALL H {SHIFT, AISO, ADIP, AORB}
|  7>         ORI       CenterOfElCharge
|  8> END
|  9>
| 10>                          ****END OF INPUT****

CARTESIAN COORDINATES (ANGSTROEM)
---------------------------------
  C     12.372489   -0.025694   -0.003889
  C     11.145150   -0.063215   -0.002922
  C      5.462565   -0.006914   -0.000347
  C      9.723233   -0.084547   -0.002710
  C      8.991612   -1.334937   -0.006044
  C      7.568096   -1.243467   -0.004816
  C      6.893004   -0.016325   -0.001072
  C      7.626849    1.217846    0.001815
  C      9.022388    1.141947    0.000985
  H      6.979314   -2.154004   -0.007037
  H      9.609097    2.053376    0.003244
  C      9.656444   -2.584161   -0.010623
  H     10.743169   -2.571699   -0.011790
  C      8.970918   -3.924775   -0.013973
  H      8.311313   -4.012213    0.864083
  H      8.304814   -4.004599   -0.887804
  C      9.953853   -5.110550   -0.022881
  H     10.602571   -5.031957   -0.904622
  H     10.609737   -5.039380    0.854189
  C      9.243243   -6.474227   -0.025747
  H      8.602628   -6.583208   -0.908211
  H      8.610016   -6.590784    0.861075
  C      6.874312    2.537488    0.005734
  H      6.204452    2.553007   -0.865237
  H      6.206907    2.549285    0.878661
  C      7.726669    3.816139    0.007239
  H      8.383786    3.826556    0.887031
  H      8.381500    3.830052   -0.874213
  C      6.866889    5.093260    0.010916
  H      6.207411    5.087681   -0.867152
  H      6.209834    5.084269    0.890772
  C      7.707141    6.382065    0.012271
  H      8.350874    6.433206   -0.873088
  H      8.353723    6.429474    0.895760
  C      4.236866    0.003382    0.000853
  H      9.964186   -7.297992   -0.032279
  H      7.070770    7.273014    0.015172
  C      2.807403    0.008084    0.001450
  C      2.080609   -1.208579    0.000892
  C      0.685809   -1.204208    0.001358
  C     -0.030286    0.016401    0.002394
  C      0.692950    1.232841    0.002976
  C      2.087722    1.228900    0.002522
  H     -3.751620    0.027739    0.003502
  H      0.149364    2.172613    0.003768
  H      2.623629   -2.148642    0.000085
  H      2.635780    2.165988    0.002952
  H      0.136645   -2.140732    0.000917
  C     13.798775    0.029931   -0.004164
  C     14.572713   -1.158310   -0.005597
  C     15.965943   -1.100729   -0.005685
  C     16.635454    0.146381   -0.004361
  C     15.865940    1.334446   -0.002981
  C     14.472741    1.277822   -0.002884
  H     20.353446    0.300448   -0.004355
  H     16.373507    2.294185   -0.001977
  H     14.067080   -2.118971   -0.006570
  H     13.889054    2.193181   -0.001801
  H     16.550261   -2.015759   -0.006746
  C     18.068874    0.205329   -0.004397
  C     19.288394    0.255839   -0.004359
  C     -1.465183    0.020681    0.002826
  C     -2.685611    0.024498    0.003190

 Total Charge           Charge          ....    0
 Multiplicity           Mult            ....    2
 Number of Electrons    NEL             ....  233
 Basis Dimension        Dim             ....  781

ORBITAL ENERGIES
----------------
                 SPIN UP ORBITALS
  NO   OCC          E(Eh)            E(eV)
   0   1.0000     -10.236796      -278.5574
   1   1.0000     -10.236364      -278.5456
   2   1.0000     -10.235098      -278.5112
   3   1.0000     -10.234891      -278.5056
   4   1.0000     -10.228343      -278.3274
   5   1.0000     -10.226484      -278.2768
   6   1.0000     -10.215628      -277.9814
   7   1.0000     -10.213970      -277.9362
   8   1.0000     -10.213880      -277.9338
   9   1.0000     -10.212978      -277.9093
  10   1.0000     -10.212844      -277.9056
  11   1.0000     -10.212785      -277.9040
  12   1.0000     -10.212687      -277.9013
  13   1.0000     -10.212386      -277.8932
  14   1.0000     -10.212225      -277.8888
  15   1.0000     -10.211704      -277.8746
  16   1.0000     -10.211415      -277.8667
  17   1.0000     -10.211278      -277.8630
  18   1.0000     -10.208925      -277.7990
  19   1.0000     -10.207853      -277.7698
  20   1.0000     -10.206715      -277.7388
  21   1.0000     -10.205634      -277.7094
  22   1.0000     -10.205621      -277.7091
  23   1.0000     -10.203515      -277.6518
  24   1.0000     -10.202257      -277.6175
  25   1.0000     -10.202040      -277.6116
  26   1.0000     -10.200483      -277.5693
  27   1.0000     -10.191973      -277.3377
  28   1.0000     -10.190449      -277.2962
  29   1.0000     -10.186730      -277.1950
  30   1.0000     -10.184198      -277.1261
  31   1.0000     -10.183755      -277.1141
  32   1.0000     -10.175303      -276.8841
  33   1.0000     -10.173140      -276.8252
  34   1.0000      -0.876368       -23.8472
  35   1.0000      -0.874268       -23.7900
  36   1.0000      -0.872775       -23.7494
  37   1.0000      -0.822464       -22.3804
  38   1.0000      -0.808520       -22.0009
  39   1.0000      -0.806245       -21.9390
  40   1.0000      -0.796529       -21.6747
  41   1.0000      -0.792597       -21.5677
  42   1.0000      -0.769218       -20.9315
  43   1.0000      -0.760438       -20.6926
  44   1.0000      -0.759408       -20.6645
  45   1.0000      -0.759128       -20.6569
  46   1.0000      -0.747378       -20.3372
  47   1.0000      -0.735980       -20.0270
  48   1.0000      -0.726455       -19.7678
  49   1.0000      -0.713701       -19.4208
  50   1.0000      -0.699545       -19.0356
  51   1.0000      -0.660703       -17.9787
  52   1.0000      -0.658199       -17.9105
  53   1.0000      -0.643196       -17.5022
  54   1.0000      -0.623938       -16.9782
  55   1.0000      -0.621174       -16.9030
  56   1.0000      -0.619764       -16.8646
  57   1.0000      -0.619023       -16.8445
  58   1.0000      -0.595838       -16.2136
  59   1.0000      -0.584092       -15.8940
  60   1.0000      -0.566139       -15.4054
  61   1.0000      -0.555967       -15.1286
  62   1.0000      -0.554706       -15.0943
  63   1.0000      -0.544657       -14.8209
  64   1.0000      -0.536270       -14.5926
  65   1.0000      -0.511149       -13.9091
  66   1.0000      -0.509305       -13.8589
  67   1.0000      -0.499558       -13.5937
  68   1.0000      -0.494027       -13.4432
  69   1.0000      -0.481136       -13.0924
  70   1.0000      -0.474182       -12.9031
  71   1.0000      -0.472363       -12.8537
  72   1.0000      -0.470706       -12.8086
  73   1.0000      -0.466384       -12.6909
  74   1.0000      -0.448778       -12.2119
  75   1.0000      -0.447217       -12.1694
  76   1.0000      -0.436701       -11.8832
  77   1.0000      -0.434111       -11.8128
  78   1.0000      -0.432704       -11.7745
  79   1.0000      -0.432148       -11.7593
  80   1.0000      -0.428280       -11.6541
  81   1.0000      -0.425780       -11.5861
  82   1.0000      -0.414451       -11.2778
  83   1.0000      -0.402724       -10.9587
  84   1.0000      -0.401228       -10.9180
  85   1.0000      -0.394195       -10.7266
  86   1.0000      -0.393452       -10.7064
  87   1.0000      -0.387851       -10.5540
  88   1.0000      -0.386894       -10.5279
  89   1.0000      -0.382832       -10.4174
  90   1.0000      -0.381835       -10.3903
  91   1.0000      -0.367925       -10.0118
  92   1.0000      -0.364371        -9.9150
  93   1.0000      -0.362878        -9.8744
  94   1.0000      -0.359864        -9.7924
  95   1.0000      -0.359787        -9.7903
  96   1.0000      -0.345856        -9.4112
  97   1.0000      -0.341385        -9.2896
  98   1.0000      -0.337604        -9.1867
  99   1.0000      -0.335201        -9.1213
 100   1.0000      -0.332821        -9.0565
 101   1.0000      -0.330006        -8.9799
 102   1.0000      -0.327651        -8.9158
 103   1.0000      -0.324987        -8.8433
 104   1.0000      -0.312798        -8.5117
 105   1.0000      -0.286534        -7.7970
 106   1.0000      -0.282183        -7.6786
 107   1.0000      -0.280864        -7.6427
 108   1.0000      -0.275714        -7.5026
 109   1.0000      -0.274470        -7.4687
 110   1.0000      -0.272864        -7.4250
 111   1.0000      -0.267723        -7.2851
 112   1.0000      -0.266931        -7.2636
 113   1.0000      -0.261422        -7.1137
 114   1.0000      -0.231830        -6.3084
 115   1.0000      -0.211159        -5.7459
 116   1.0000      -0.175093        -4.7645
 117   0.0000      -0.079162        -2.1541
 118   0.0000      -0.053389        -1.4528
 119   0.0000      -0.022582        -0.6145
 120   0.0000      -0.021471        -0.5842
 121   0.0000      -0.018827        -0.5123

                 SPIN DOWN ORBITALS
  NO   OCC          E(Eh)            E(eV)
   0   1.0000     -10.236614      -278.5524
   1   1.0000     -10.236548      -278.5506
   2   1.0000     -10.235492      -278.5219
   3   1.0000     -10.234436      -278.4932
   4   1.0000     -10.228094      -278.3206
   5   1.0000     -10.224989      -278.2361
   6   1.0000     -10.215234      -277.9706
   7   1.0000     -10.213908      -277.9346
   8   1.0000     -10.213814      -277.9320
   9   1.0000     -10.213119      -277.9131
  10   1.0000     -10.212988      -277.9095
  11   1.0000     -10.212630      -277.8998
  12   1.0000     -10.212532      -277.8971
  13   1.0000     -10.212396      -277.8934
  14   1.0000     -10.212253      -277.8895
  15   1.0000     -10.211420      -277.8669
  16   1.0000     -10.211375      -277.8656
  17   1.0000     -10.211062      -277.8571
  18   1.0000     -10.208959      -277.7999
  19   1.0000     -10.207801      -277.7684
  20   1.0000     -10.206845      -277.7424
  21   1.0000     -10.205278      -277.6997
  22   1.0000     -10.203612      -277.6544
  23   1.0000     -10.202508      -277.6244
  24   1.0000     -10.202060      -277.6122
  25   1.0000     -10.202015      -277.6109
  26   1.0000     -10.192649      -277.3561
  27   1.0000     -10.192230      -277.3447
  28   1.0000     -10.190641      -277.3015
  29   1.0000     -10.186694      -277.1940
  30   1.0000     -10.184195      -277.1260
  31   1.0000     -10.183756      -277.1141
  32   1.0000     -10.175312      -276.8843
  33   1.0000     -10.173142      -276.8253
  34   1.0000      -0.875254       -23.8169
  35   1.0000      -0.873402       -23.7665
  36   1.0000      -0.871186       -23.7062
  37   1.0000      -0.818436       -22.2708
  38   1.0000      -0.807144       -21.9635
  39   1.0000      -0.805404       -21.9162
  40   1.0000      -0.794432       -21.6176
  41   1.0000      -0.791542       -21.5390
  42   1.0000      -0.767293       -20.8791
  43   1.0000      -0.760575       -20.6963
  44   1.0000      -0.759024       -20.6541
  45   1.0000      -0.758798       -20.6480
  46   1.0000      -0.746844       -20.3227
  47   1.0000      -0.733267       -19.9532
  48   1.0000      -0.724785       -19.7224
  49   1.0000      -0.712759       -19.3952
  50   1.0000      -0.697380       -18.9767
  51   1.0000      -0.659430       -17.9440
  52   1.0000      -0.655463       -17.8361
  53   1.0000      -0.642939       -17.4952
  54   1.0000      -0.622655       -16.9433
  55   1.0000      -0.621253       -16.9052
  56   1.0000      -0.619487       -16.8571
  57   1.0000      -0.613992       -16.7076
  58   1.0000      -0.594961       -16.1897
  59   1.0000      -0.582492       -15.8504
  60   1.0000      -0.563374       -15.3302
  61   1.0000      -0.556063       -15.1312
  62   1.0000      -0.554447       -15.0873
  63   1.0000      -0.544065       -14.8047
  64   1.0000      -0.535463       -14.5707
  65   1.0000      -0.509169       -13.8552
  66   1.0000      -0.507656       -13.8140
  67   1.0000      -0.498978       -13.5779
  68   1.0000      -0.493152       -13.4193
  69   1.0000      -0.479711       -13.0536
  70   1.0000      -0.473329       -12.8799
  71   1.0000      -0.472379       -12.8541
  72   1.0000      -0.470474       -12.8023
  73   1.0000      -0.463023       -12.5995
  74   1.0000      -0.448774       -12.2118
  75   1.0000      -0.447008       -12.1637
  76   1.0000      -0.435407       -11.8480
  77   1.0000      -0.434142       -11.8136
  78   1.0000      -0.432605       -11.7718
  79   1.0000      -0.429884       -11.6977
  80   1.0000      -0.427043       -11.6204
  81   1.0000      -0.423341       -11.5197
  82   1.0000      -0.414058       -11.2671
  83   1.0000      -0.400182       -10.8895
  84   1.0000      -0.396406       -10.7868
  85   1.0000      -0.393999       -10.7213
  86   1.0000      -0.391549       -10.6546
  87   1.0000      -0.387941       -10.5564
  88   1.0000      -0.386449       -10.5158
  89   1.0000      -0.379609       -10.3297
  90   1.0000      -0.379341       -10.3224
  91   1.0000      -0.366802        -9.9812
  92   1.0000      -0.364391        -9.9156
  93   1.0000      -0.362714        -9.8699
  94   1.0000      -0.358940        -9.7672
  95   1.0000      -0.356812        -9.7094
  96   1.0000      -0.345356        -9.3976
  97   1.0000      -0.339055        -9.2262
  98   1.0000      -0.335538        -9.1304
  99   1.0000      -0.334728        -9.1084
 100   1.0000      -0.331398        -9.0178
 101   1.0000      -0.329638        -8.9699
 102   1.0000      -0.327295        -8.9061
 103   1.0000      -0.324342        -8.8258
 104   1.0000      -0.310705        -8.4547
 105   1.0000      -0.283360        -7.7106
 106   1.0000      -0.282217        -7.6795
 107   1.0000      -0.280762        -7.6399
 108   1.0000      -0.274325        -7.4648
 109   1.0000      -0.272456        -7.4139
 110   1.0000      -0.268115        -7.2958
 111   1.0000      -0.265989        -7.2379
 112   1.0000      -0.262643        -7.1469
 113   1.0000      -0.258841        -7.0434
 114   1.0000      -0.230446        -6.2708
 115   1.0000      -0.204477        -5.5641
 116   0.0000      -0.092999        -2.5306
 117   0.0000      -0.070606        -1.9213
 118   0.0000      -0.051377        -1.3980
 119   0.0000      -0.022903        -0.6232
 120   0.0000      -0.020717        -0.5637

MULLIKEN ATOMIC CHARGES AND SPIN POPULATIONS
--------------------------------------------
   0 C :   -0.440198    0.095797
   1 C :   -0.379418   -0.066698
   2 C :   -0.382760    0.029566
   3 C :    0.501815    0.203295
   4 C :    0.374987   -0.138042
   5 C :   -0.446832    0.212397
   6 C :    0.564119   -0.091463
   7 C :    0.232266    0.218637
   8 C :   -0.386073   -0.109553
   9 H :    0.133024   -0.011401
  10 H :    0.134632    0.005102
  11 C :   -0.265193    0.690879
  12 H :    0.126351   -0.036226
  13 C :   -0.273200   -0.044622
  14 H :    0.153341    0.029198
  15 H :    0.153106    0.029062
  16 C :   -0.290414    0.002179
  17 H :    0.155485   -0.000150
  18 H :    0.155326   -0.000147
  19 C :   -0.510147   -0.000770
  20 H :    0.159732    0.000163
  21 H :    0.159737    0.000164
  22 C :   -0.356394   -0.016442
  23 H :    0.152607    0.010057
  24 H :    0.152699    0.010082
  25 C :   -0.273860    0.000899
  26 H :    0.142521    0.000167
  27 H :    0.142612    0.000168
  28 C :   -0.262947   -0.000227
  29 H :    0.144604    0.000041
  30 H :    0.144624    0.000041
  31 C :   -0.511314   -0.000083
  32 H :    0.160194    0.000023
  33 H :    0.160180    0.000022
  34 C :   -0.425522   -0.044234
  35 H :    0.147021   -0.000164
  36 H :    0.144794   -0.000005
  37 C :    0.657148    0.010328
  38 C :   -0.260656   -0.011197
  39 C :   -0.257021    0.006372
  40 C :    0.609721   -0.011555
  41 C :   -0.262650    0.006370
  42 C :   -0.248977   -0.011235
  43 H :    0.187038    0.000293
  44 H :    0.123786   -0.000319
  45 H :    0.122648    0.000586
  46 H :    0.122246    0.000587
  47 H :    0.124025   -0.000318
  48 C :    0.665115   -0.021675
  49 C :   -0.257843    0.025967
  50 C :   -0.259223   -0.014996
  51 C :    0.605277    0.028405
  52 C :   -0.258831   -0.015039
  53 C :   -0.256106    0.026329
  54 H :    0.186665   -0.000740
  55 H :    0.123562    0.000749
  56 H :    0.119294   -0.001346
  57 H :    0.122018   -0.001396
  58 H :    0.123446    0.000752
  59 C :   -0.065757   -0.009206
  60 C :   -0.495814    0.018089
  61 C :   -0.066188    0.003727
  62 C :   -0.494429   -0.007246
Sum of atomic charges         :   -0.0000000

LOEWDIN ATOMIC CHARGES AND SPIN POPULATIONS
-------------------------------------------
   0 C :   -0.038154    0.071755
   1 C :   -0.024970   -0.030389
   2 C :   -0.022631    0.017548
   3 C :   -0.054160    0.159390
   4 C :   -0.066023   -0.072184
   5 C :    0.010470    0.168804
   6 C :   -0.067570   -0.059286
   7 C :   -0.039654    0.172048
   8 C :   -0.008455   -0.064909
   9 H :    0.059648    0.001212
  10 H :    0.061108   -0.000577
  11 C :   -0.006464    0.570736
  12 H :    0.056968    0.004525
  13 C :   -0.082492    0.003440
  14 H :    0.054508    0.023914
  15 H :    0.054432    0.023790
  16 C :   -0.087784    0.000927
  17 H :    0.042260   -0.000048
  18 H :    0.042227   -0.000048
  19 C :   -0.077522   -0.000163
  20 H :    0.034451    0.000198
  21 H :    0.034451    0.000199
  22 C :   -0.044953    0.001583
  23 H :    0.059382    0.008002
  24 H :    0.059395    0.008019
  25 C :   -0.079546    0.000187
  26 H :    0.044751    0.000006
  27 H :    0.044780    0.000005
  28 C :   -0.090347   -0.000005
  29 H :    0.040891    0.000058
  30 H :    0.040894    0.000058
  31 C :   -0.078388   -0.000034
  32 H :    0.034220    0.000015
  33 H :    0.034220    0.000014
  34 C :   -0.036260   -0.034188
  35 H :    0.032680   -0.000083
  36 H :    0.031901   -0.000006
  37 C :   -0.066981    0.005834
  38 C :   -0.009999   -0.008840
  39 C :   -0.008584    0.004118
  40 C :   -0.072866   -0.008911
  41 C :   -0.008918    0.004114
  42 C :   -0.010440   -0.008829
  43 H :    0.046382   -0.000036
  44 H :    0.059025    0.000027
  45 H :    0.058205   -0.000031
  46 H :    0.057973   -0.000032
  47 H :    0.059090    0.000026
  48 C :   -0.066850   -0.012433
  49 C :   -0.011710    0.020667
  50 C :   -0.009350   -0.009649
  51 C :   -0.073821    0.021923
  52 C :   -0.009015   -0.009643
  53 C :   -0.010561    0.020867
  54 H :    0.046177    0.000089
  55 H :    0.058959   -0.000064
  56 H :    0.057137    0.000074
  57 H :    0.058048    0.000076
  58 H :    0.058896   -0.000065
  59 C :   -0.034793   -0.004297
  60 C :   -0.050501    0.014597
  61 C :   -0.034704    0.001753
  62 C :   -0.049065   -0.005851

  Mayer bond orders larger than 0.100000
B(  0-C ,  1-C ) :   2.2780 B(  0-C ,  3-C ) :   0.1025 B(  0-C , 48-C ) :   0.9716
B(  1-C ,  3-C ) :   0.7804 B(  2-C ,  6-C ) :   0.7372 B(  2-C , 34-C ) :   2.3334
B(  3-C ,  4-C ) :   1.2844 B(  3-C ,  7-C ) :   0.1066 B(  3-C ,  8-C ) :   1.4369
B(  4-C ,  5-C ) :   1.2242 B(  4-C ,  6-C ) :   0.1145 B(  4-C , 11-C ) :   1.2952
B(  5-C ,  6-C ) :   1.4968 B(  5-C ,  9-H ) :   0.9676 B(  6-C ,  7-C ) :   1.3417
B(  6-C ,  8-C ) :   0.1072 B(  6-C , 34-C ) :   0.1013 B(  7-C ,  8-C ) :   1.4164
B(  7-C , 22-C ) :   0.9636 B(  8-C , 10-H ) :   0.9697 B( 11-C , 12-H ) :   0.9823
B( 11-C , 13-C ) :   0.9983 B( 13-C , 14-H ) :   0.9558 B( 13-C , 15-H ) :   0.9557
B( 13-C , 16-C ) :   0.9819 B( 16-C , 17-H ) :   0.9722 B( 16-C , 18-H ) :   0.9721
B( 16-C , 19-C ) :   0.9624 B( 19-C , 20-H ) :   0.9727 B( 19-C , 21-H ) :   0.9727
B( 19-C , 35-H ) :   0.9671 B( 22-C , 23-H ) :   0.9547 B( 22-C , 24-H ) :   0.9550
B( 22-C , 25-C ) :   1.0241 B( 25-C , 26-H ) :   0.9614 B( 25-C , 27-H ) :   0.9615
B( 25-C , 28-C ) :   0.9863 B( 28-C , 29-H ) :   0.9716 B( 28-C , 30-H ) :   0.9716
B( 28-C , 31-C ) :   0.9551 B( 31-C , 32-H ) :   0.9730 B( 31-C , 33-H ) :   0.9730
B( 31-C , 36-H ) :   0.9670 B( 34-C , 37-C ) :   0.9558 B( 37-C , 38-C ) :   1.3821
B( 37-C , 39-C ) :   0.1048 B( 37-C , 41-C ) :   0.1034 B( 37-C , 42-C ) :   1.3741
B( 38-C , 39-C ) :   1.4958 B( 38-C , 45-H ) :   0.9762 B( 39-C , 40-C ) :   1.3682
B( 39-C , 47-H ) :   0.9735 B( 40-C , 41-C ) :   1.3723 B( 40-C , 61-C ) :   0.9100
B( 41-C , 42-C ) :   1.4973 B( 41-C , 44-H ) :   0.9746 B( 42-C , 46-H ) :   0.9754
B( 43-H , 62-C ) :   0.9806 B( 48-C , 49-C ) :   1.3709 B( 48-C , 50-C ) :   0.1029
B( 48-C , 52-C ) :   0.1038 B( 48-C , 53-C ) :   1.3691 B( 49-C , 50-C ) :   1.4998
B( 49-C , 56-H ) :   0.9761 B( 50-C , 51-C ) :   1.3691 B( 50-C , 58-H ) :   0.9744
B( 51-C , 52-C ) :   1.3674 B( 51-C , 59-C ) :   0.9122 B( 52-C , 53-C ) :   1.4983
B( 52-C , 55-H ) :   0.9736 B( 53-C , 57-H ) :   0.9766 B( 54-H , 60-C ) :   0.9808
B( 59-C , 60-C ) :   2.7820 B( 61-C , 62-C ) :   2.7839

FINAL SINGLE POINT ENERGY     -1312.129053897472

DIPOLE MOMENT
-------------
                                X             Y             Z
Electronic contribution:      0.30924      -1.97871       0.02598
Nuclear contribution   :     -0.48165       1.92184      -0.02647
                        -----------------------------------------
Total Dipole Moment    :     -0.17241      -0.05687      -0.00049
                        -----------------------------------------
Magnitude (a.u.)       :      0.18155
Magnitude (Debye)      :      0.46147

Rotational constants in cm-1:     0.005903     0.001223     0.001015
Rotational constants in MHz :   176.956112    36.669599    30.415046

CHEMICAL SHIELDING SUMMARY (ppm)  --  Orbital contribution
----------------------------------------------------------

  Nucleus  Element    Isotropic     Anisotropy
  -------  -------  ------------   ------------
      9       H           89.168         81.123
     10       H           95.509         69.943
     12       H           79.701         27.967
     14       H           89.481         30.764
     15       H           89.739         30.462
     17       H           47.635         37.935
     18       H           47.391         37.787
     20       H           34.798         24.485
     21       H           34.565         24.709
     23       H           90.870         59.622
     24       H           90.824         59.651
     26       H           99.150         30.439
     27       H           99.197         30.501
     29       H           45.549         38.901
     30       H           45.503         38.955
     32       H           41.293         24.161
     33       H           41.285         24.110
     35       H          -52.219         18.817
     36       H          -50.029         18.148
     43       H         -249.644       -231.353
     44       H          -45.234         -1.754
     45       H          117.605         20.273
     46       H          117.935         23.745
     47       H          -45.981         -2.014
     54       H         -248.747       -227.989
     55       H          -38.980         -0.787
     56       H          110.878         21.858
     57       H          124.273         21.197
     58       H          -51.383         -3.518

                             ****ORCA TERMINATED NORMALLY****
TOTAL RUN TIME: 0 days 4 hours 18 minutes 12 seconds 411 msec
