                         Program Version 5.0.4 -  RELEASE  -
|  1> ! B3LYP EPR-II AUTOAUX
|  2> %pal nprocs 16 end
|  3> *XYZFile 0 2 opt.xyz
|  4> %EPRNMR
|  5>         GTENSOR   TRUE
|  6>         NUCLEI    = ALL H {SHIFT, AISO, ADIP, AORB}
|  7>         ORI       CenterOfElCharge
|  8> END
|  9>
| 10>                          ****END OF INPUT****

CARTESIAN COORDINATES (ANGSTROEM)
---------------------------------
  C     12.367468   -0.026690   -0.004521
  C     11.143536   -0.068421   -0.003249
  C      5.470105   -0.000456   -0.000953
  C      9.724522   -0.088645   -0.002867
  C      8.990628   -1.335024   -0.006403
  C      7.570759   -1.236349   -0.005487
  C      6.897637   -0.011889   -0.001450
  C      7.634424    1.217416    0.002056
  C      9.026112    1.135702    0.001259
  H      6.974675   -2.149130   -0.008114
  H      9.619812    2.049654    0.003881
  C      9.646865   -2.583921   -0.010645
  H     10.739981   -2.573932   -0.011197
  C      8.960510   -3.917165   -0.014594
  H      8.287887   -4.000132    0.864048
  H      8.286468   -3.994223   -0.892681
  C      9.932017   -5.104805   -0.019413
  H     10.591664   -5.026394   -0.902868
  H     10.593459   -5.032110    0.863189
  C      9.223189   -6.460465   -0.023106
  H      8.579052   -6.573687   -0.912248
  H      8.580972   -6.579530    0.866660
  C      6.888617    2.535280    0.006628
  H      6.209492    2.550134   -0.866458
  H      6.212355    2.545704    0.882021
  C      7.733771    3.811741    0.008515
  H      8.398339    3.820953    0.891977
  H      8.396097    3.824967   -0.876584
  C      6.878227    5.084572    0.012531
  H      6.210709    5.076758   -0.869130
  H      6.212980    5.072748    0.895865
  C      7.710095    6.369491    0.014397
  H      8.360072    6.427193   -0.875761
  H      8.362497    6.423053    0.903036
  C      4.247577    0.004948    0.000113
  H      9.945336   -7.292652   -0.026626
  H      7.068970    7.265890    0.017359
  C      2.821946    0.006500    0.000494
  C      2.097893   -1.206838   -0.000235
  C      0.707780   -1.204952    0.000050
  C     -0.010741    0.009504    0.001091
  C      0.710352    1.222515    0.001864
  C      2.100373    1.221345    0.001582
  H     -3.729592    0.014614    0.001756
  H      0.163384    2.167010    0.002651
  H      2.643820   -2.151876   -0.001021
  H      2.647986    2.165427    0.002150
  H      0.158864   -2.148310   -0.000515
  C     13.789722    0.031477   -0.005118
  C     14.565302   -1.150711   -0.007168
  C     15.953740   -1.090712   -0.007603
  C     16.621353    0.152770   -0.006014
  C     15.849687    1.334610   -0.003972
  C     14.461312    1.275873   -0.003524
  H     20.336530    0.314151   -0.006977
  H     16.356949    2.301040   -0.002743
  H     14.060641   -2.118439   -0.008361
  H     13.874663    2.196192   -0.001939
  H     16.541337   -2.010509   -0.009127
  C     18.050568    0.214344   -0.006425
  C     19.265095    0.266906   -0.006700
  C     -1.441545    0.011220    0.001350
  C     -2.657087    0.013045    0.001570

 Total Charge           Charge          ....    0
 Multiplicity           Mult            ....    2
 Number of Electrons    NEL             ....  233
 Basis Dimension        Dim             ....  781

ORBITAL ENERGIES
----------------
                 SPIN UP ORBITALS
  NO   OCC          E(Eh)            E(eV)
   0   1.0000     -10.235501      -278.5222
   1   1.0000     -10.235070      -278.5104
   2   1.0000     -10.233813      -278.4762
   3   1.0000     -10.233502      -278.4678
   4   1.0000     -10.227428      -278.3025
   5   1.0000     -10.225527      -278.2507
   6   1.0000     -10.214802      -277.9589
   7   1.0000     -10.213334      -277.9190
   8   1.0000     -10.213260      -277.9169
   9   1.0000     -10.212354      -277.8923
  10   1.0000     -10.212233      -277.8890
  11   1.0000     -10.211808      -277.8774
  12   1.0000     -10.211698      -277.8744
  13   1.0000     -10.211553      -277.8705
  14   1.0000     -10.211388      -277.8660
  15   1.0000     -10.211026      -277.8561
  16   1.0000     -10.210766      -277.8491
  17   1.0000     -10.209948      -277.8268
  18   1.0000     -10.208055      -277.7753
  19   1.0000     -10.206872      -277.7431
  20   1.0000     -10.205750      -277.7126
  21   1.0000     -10.205186      -277.6972
  22   1.0000     -10.204645      -277.6825
  23   1.0000     -10.203083      -277.6400
  24   1.0000     -10.201903      -277.6079
  25   1.0000     -10.201759      -277.6040
  26   1.0000     -10.200112      -277.5592
  27   1.0000     -10.193052      -277.3670
  28   1.0000     -10.191344      -277.3206
  29   1.0000     -10.187990      -277.2293
  30   1.0000     -10.185354      -277.1576
  31   1.0000     -10.185028      -277.1487
  32   1.0000     -10.177463      -276.9428
  33   1.0000     -10.175322      -276.8846
  34   1.0000      -0.878003       -23.8917
  35   1.0000      -0.876134       -23.8408
  36   1.0000      -0.874593       -23.7989
  37   1.0000      -0.823731       -22.4149
  38   1.0000      -0.809715       -22.0335
  39   1.0000      -0.807506       -21.9734
  40   1.0000      -0.797607       -21.7040
  41   1.0000      -0.793637       -21.5960
  42   1.0000      -0.770033       -20.9537
  43   1.0000      -0.760841       -20.7035
  44   1.0000      -0.760489       -20.6940
  45   1.0000      -0.759479       -20.6665
  46   1.0000      -0.748404       -20.3651
  47   1.0000      -0.736666       -20.0457
  48   1.0000      -0.727189       -19.7878
  49   1.0000      -0.714347       -19.4384
  50   1.0000      -0.699599       -19.0371
  51   1.0000      -0.661247       -17.9935
  52   1.0000      -0.658105       -17.9080
  53   1.0000      -0.643832       -17.5195
  54   1.0000      -0.624274       -16.9874
  55   1.0000      -0.620631       -16.8882
  56   1.0000      -0.619127       -16.8473
  57   1.0000      -0.618057       -16.8182
  58   1.0000      -0.594825       -16.1860
  59   1.0000      -0.582440       -15.8490
  60   1.0000      -0.564809       -15.3692
  61   1.0000      -0.555527       -15.1167
  62   1.0000      -0.554211       -15.0809
  63   1.0000      -0.544410       -14.8142
  64   1.0000      -0.535941       -14.5837
  65   1.0000      -0.511126       -13.9085
  66   1.0000      -0.508929       -13.8487
  67   1.0000      -0.498934       -13.5767
  68   1.0000      -0.493737       -13.4353
  69   1.0000      -0.481973       -13.1151
  70   1.0000      -0.473606       -12.8875
  71   1.0000      -0.473304       -12.8793
  72   1.0000      -0.471895       -12.8409
  73   1.0000      -0.465304       -12.6616
  74   1.0000      -0.447660       -12.1815
  75   1.0000      -0.446045       -12.1375
  76   1.0000      -0.436421       -11.8756
  77   1.0000      -0.433139       -11.7863
  78   1.0000      -0.432708       -11.7746
  79   1.0000      -0.431661       -11.7461
  80   1.0000      -0.428548       -11.6614
  81   1.0000      -0.424853       -11.5608
  82   1.0000      -0.414149       -11.2696
  83   1.0000      -0.402078       -10.9411
  84   1.0000      -0.401775       -10.9329
  85   1.0000      -0.395413       -10.7597
  86   1.0000      -0.394410       -10.7324
  87   1.0000      -0.387907       -10.5555
  88   1.0000      -0.386881       -10.5276
  89   1.0000      -0.382459       -10.4072
  90   1.0000      -0.381736       -10.3876
  91   1.0000      -0.367794       -10.0082
  92   1.0000      -0.363140        -9.8816
  93   1.0000      -0.361714        -9.8427
  94   1.0000      -0.359916        -9.7938
  95   1.0000      -0.358588        -9.7577
  96   1.0000      -0.345949        -9.4138
  97   1.0000      -0.342647        -9.3239
  98   1.0000      -0.336935        -9.1685
  99   1.0000      -0.335218        -9.1217
 100   1.0000      -0.331909        -9.0317
 101   1.0000      -0.329982        -8.9793
 102   1.0000      -0.326041        -8.8720
 103   1.0000      -0.325440        -8.8557
 104   1.0000      -0.313300        -8.5253
 105   1.0000      -0.287016        -7.8101
 106   1.0000      -0.282815        -7.6958
 107   1.0000      -0.281451        -7.6587
 108   1.0000      -0.275771        -7.5041
 109   1.0000      -0.274820        -7.4782
 110   1.0000      -0.273169        -7.4333
 111   1.0000      -0.268147        -7.2967
 112   1.0000      -0.267299        -7.2736
 113   1.0000      -0.261908        -7.1269
 114   1.0000      -0.232119        -6.3163
 115   1.0000      -0.211240        -5.7481
 116   1.0000      -0.174737        -4.7548
 117   0.0000      -0.078703        -2.1416
 118   0.0000      -0.052660        -1.4329
 119   0.0000      -0.021366        -0.5814
 120   0.0000      -0.020202        -0.5497
 121   0.0000      -0.017900        -0.4871

                 SPIN DOWN ORBITALS
  NO   OCC          E(Eh)            E(eV)
   0   1.0000     -10.235326      -278.5174
   1   1.0000     -10.235248      -278.5153
   2   1.0000     -10.234202      -278.4868
   3   1.0000     -10.233050      -278.4555
   4   1.0000     -10.227123      -278.2942
   5   1.0000     -10.224084      -278.2115
   6   1.0000     -10.214236      -277.9435
   7   1.0000     -10.213279      -277.9175
   8   1.0000     -10.213201      -277.9153
   9   1.0000     -10.212488      -277.8959
  10   1.0000     -10.212370      -277.8927
  11   1.0000     -10.211828      -277.8780
  12   1.0000     -10.211711      -277.8748
  13   1.0000     -10.211437      -277.8673
  14   1.0000     -10.211337      -277.8646
  15   1.0000     -10.210713      -277.8476
  16   1.0000     -10.210426      -277.8398
  17   1.0000     -10.210084      -277.8305
  18   1.0000     -10.208056      -277.7753
  19   1.0000     -10.206864      -277.7429
  20   1.0000     -10.205913      -277.7170
  21   1.0000     -10.204242      -277.6716
  22   1.0000     -10.203173      -277.6425
  23   1.0000     -10.202087      -277.6129
  24   1.0000     -10.201674      -277.6017
  25   1.0000     -10.201522      -277.5975
  26   1.0000     -10.193709      -277.3849
  27   1.0000     -10.192170      -277.3431
  28   1.0000     -10.191539      -277.3259
  29   1.0000     -10.187953      -277.2283
  30   1.0000     -10.185352      -277.1575
  31   1.0000     -10.185028      -277.1487
  32   1.0000     -10.177471      -276.9431
  33   1.0000     -10.175323      -276.8846
  34   1.0000      -0.877136       -23.8681
  35   1.0000      -0.875223       -23.8160
  36   1.0000      -0.872789       -23.7498
  37   1.0000      -0.819675       -22.3045
  38   1.0000      -0.808369       -21.9968
  39   1.0000      -0.806642       -21.9499
  40   1.0000      -0.795498       -21.6466
  41   1.0000      -0.792581       -21.5672
  42   1.0000      -0.768106       -20.9012
  43   1.0000      -0.760975       -20.7072
  44   1.0000      -0.760102       -20.6834
  45   1.0000      -0.759151       -20.6575
  46   1.0000      -0.747866       -20.3505
  47   1.0000      -0.734025       -19.9738
  48   1.0000      -0.725412       -19.7395
  49   1.0000      -0.713433       -19.4135
  50   1.0000      -0.697373       -18.9765
  51   1.0000      -0.660155       -17.9637
  52   1.0000      -0.655206       -17.8291
  53   1.0000      -0.643603       -17.5133
  54   1.0000      -0.623040       -16.9538
  55   1.0000      -0.620716       -16.8905
  56   1.0000      -0.618880       -16.8406
  57   1.0000      -0.612972       -16.6798
  58   1.0000      -0.593919       -16.1613
  59   1.0000      -0.580847       -15.8056
  60   1.0000      -0.562185       -15.2978
  61   1.0000      -0.555610       -15.1189
  62   1.0000      -0.553959       -15.0740
  63   1.0000      -0.543804       -14.7977
  64   1.0000      -0.535118       -14.5613
  65   1.0000      -0.508856       -13.8467
  66   1.0000      -0.507441       -13.8082
  67   1.0000      -0.498443       -13.5633
  68   1.0000      -0.492893       -13.4123
  69   1.0000      -0.480576       -13.0771
  70   1.0000      -0.473616       -12.8878
  71   1.0000      -0.472428       -12.8554
  72   1.0000      -0.471657       -12.8344
  73   1.0000      -0.461862       -12.5679
  74   1.0000      -0.447649       -12.1812
  75   1.0000      -0.445850       -12.1322
  76   1.0000      -0.434682       -11.8283
  77   1.0000      -0.433165       -11.7870
  78   1.0000      -0.431572       -11.7437
  79   1.0000      -0.430928       -11.7262
  80   1.0000      -0.427295       -11.6273
  81   1.0000      -0.422258       -11.4902
  82   1.0000      -0.413704       -11.2575
  83   1.0000      -0.400745       -10.9048
  84   1.0000      -0.396863       -10.7992
  85   1.0000      -0.394826       -10.7438
  86   1.0000      -0.391646       -10.6572
  87   1.0000      -0.388010       -10.5583
  88   1.0000      -0.386457       -10.5160
  89   1.0000      -0.379498       -10.3267
  90   1.0000      -0.378931       -10.3112
  91   1.0000      -0.366649        -9.9770
  92   1.0000      -0.363160        -9.8821
  93   1.0000      -0.361528        -9.8377
  94   1.0000      -0.358992        -9.7687
  95   1.0000      -0.355555        -9.6751
  96   1.0000      -0.345574        -9.4035
  97   1.0000      -0.340336        -9.2610
  98   1.0000      -0.334880        -9.1126
  99   1.0000      -0.334733        -9.1085
 100   1.0000      -0.330306        -8.9881
 101   1.0000      -0.329633        -8.9698
 102   1.0000      -0.325351        -8.8532
 103   1.0000      -0.325087        -8.8461
 104   1.0000      -0.311258        -8.4697
 105   1.0000      -0.284007        -7.7282
 106   1.0000      -0.282848        -7.6967
 107   1.0000      -0.281349        -7.6559
 108   1.0000      -0.274674        -7.4743
 109   1.0000      -0.272755        -7.4220
 110   1.0000      -0.268535        -7.3072
 111   1.0000      -0.266357        -7.2479
 112   1.0000      -0.262721        -7.1490
 113   1.0000      -0.259306        -7.0561
 114   1.0000      -0.230724        -6.2783
 115   1.0000      -0.204585        -5.5670
 116   0.0000      -0.092922        -2.5285
 117   0.0000      -0.070179        -1.9097
 118   0.0000      -0.050664        -1.3786
 119   0.0000      -0.021682        -0.5900
 120   0.0000      -0.019450        -0.5293

MULLIKEN ATOMIC CHARGES AND SPIN POPULATIONS
--------------------------------------------
   0 C :   -0.440766    0.095243
   1 C :   -0.383200   -0.066080
   2 C :   -0.386342    0.028667
   3 C :    0.507931    0.202560
   4 C :    0.378987   -0.136001
   5 C :   -0.451629    0.211212
   6 C :    0.568899   -0.090153
   7 C :    0.239675    0.217375
   8 C :   -0.391192   -0.108230
   9 H :    0.131191   -0.011446
  10 H :    0.132852    0.005082
  11 C :   -0.261888    0.686088
  12 H :    0.124923   -0.036267
  13 C :   -0.269457   -0.045253
  14 H :    0.150652    0.030584
  15 H :    0.150628    0.030566
  16 C :   -0.282757    0.002244
  17 H :    0.152654   -0.000172
  18 H :    0.152611   -0.000171
  19 C :   -0.507295   -0.000750
  20 H :    0.157584    0.000174
  21 H :    0.157591    0.000174
  22 C :   -0.353332   -0.016624
  23 H :    0.150000    0.010509
  24 H :    0.150121    0.010542
  25 C :   -0.268568    0.000913
  26 H :    0.139636    0.000173
  27 H :    0.139723    0.000173
  28 C :   -0.254168   -0.000219
  29 H :    0.141626    0.000042
  30 H :    0.141641    0.000042
  31 C :   -0.508645   -0.000084
  32 H :    0.158060    0.000025
  33 H :    0.158051    0.000025
  34 C :   -0.425937   -0.043321
  35 H :    0.145400   -0.000167
  36 H :    0.143172   -0.000005
  37 C :    0.664405    0.009846
  38 C :   -0.261708   -0.010726
  39 C :   -0.257827    0.005971
  40 C :    0.616846   -0.011135
  41 C :   -0.263187    0.005966
  42 C :   -0.250662   -0.010760
  43 H :    0.185536    0.000276
  44 H :    0.121992   -0.000294
  45 H :    0.120886    0.000561
  46 H :    0.120536    0.000562
  47 H :    0.122211   -0.000293
  48 C :    0.672648   -0.021202
  49 C :   -0.259642    0.025584
  50 C :   -0.259637   -0.014638
  51 C :    0.612050    0.028113
  52 C :   -0.259588   -0.014685
  53 C :   -0.257058    0.025937
  54 H :    0.185135   -0.000735
  55 H :    0.121717    0.000736
  56 H :    0.117538   -0.001338
  57 H :    0.120250   -0.001388
  58 H :    0.121617    0.000738
  59 C :   -0.060469   -0.008943
  60 C :   -0.501155    0.017796
  61 C :   -0.061116    0.003429
  62 C :   -0.499749   -0.006844
Sum of atomic charges         :   -0.0000000

LOEWDIN ATOMIC CHARGES AND SPIN POPULATIONS
-------------------------------------------
   0 C :   -0.037419    0.071169
   1 C :   -0.024812   -0.029623
   2 C :   -0.022513    0.016915
   3 C :   -0.054827    0.158691
   4 C :   -0.067522   -0.070497
   5 C :    0.009460    0.167864
   6 C :   -0.068447   -0.058367
   7 C :   -0.041379    0.171132
   8 C :   -0.009834   -0.063767
   9 H :    0.061954    0.001051
  10 H :    0.063503   -0.000492
  11 C :   -0.009132    0.566719
  12 H :    0.059891    0.003918
  13 C :   -0.087400    0.003479
  14 H :    0.057042    0.024934
  15 H :    0.057033    0.024917
  16 C :   -0.093841    0.000961
  17 H :    0.044931   -0.000066
  18 H :    0.044922   -0.000066
  19 C :   -0.083721   -0.000126
  20 H :    0.036826    0.000212
  21 H :    0.036825    0.000213
  22 C :   -0.049129    0.001607
  23 H :    0.061886    0.008332
  24 H :    0.061906    0.008356
  25 C :   -0.084393    0.000187
  26 H :    0.047181    0.000006
  27 H :    0.047210    0.000006
  28 C :   -0.096219    0.000010
  29 H :    0.043467    0.000061
  30 H :    0.043473    0.000061
  31 C :   -0.084580   -0.000032
  32 H :    0.036580    0.000017
  33 H :    0.036578    0.000016
  34 C :   -0.035465   -0.033489
  35 H :    0.034948   -0.000082
  36 H :    0.034158   -0.000006
  37 C :   -0.068705    0.005499
  38 C :   -0.011928   -0.008491
  39 C :   -0.010484    0.003826
  40 C :   -0.074375   -0.008602
  41 C :   -0.010803    0.003820
  42 C :   -0.012283   -0.008477
  43 H :    0.049926   -0.000030
  44 H :    0.061381    0.000023
  45 H :    0.060563   -0.000023
  46 H :    0.060377   -0.000024
  47 H :    0.061438    0.000023
  48 C :   -0.068604   -0.012051
  49 C :   -0.013561    0.020375
  50 C :   -0.011241   -0.009360
  51 C :   -0.075345    0.021694
  52 C :   -0.010921   -0.009356
  53 C :   -0.012514    0.020566
  54 H :    0.049713    0.000072
  55 H :    0.061300   -0.000052
  56 H :    0.059510    0.000052
  57 H :    0.060407    0.000053
  58 H :    0.061239   -0.000053
  59 C :   -0.035709   -0.004077
  60 C :   -0.052181    0.014354
  61 C :   -0.035609    0.001550
  62 C :   -0.050731   -0.005535

  Mayer bond orders larger than 0.100000
B(  0-C ,  1-C ) :   2.2715 B(  0-C ,  3-C ) :   0.1074 B(  0-C , 48-C ) :   0.9753
B(  1-C ,  3-C ) :   0.7753 B(  2-C ,  6-C ) :   0.7321 B(  2-C , 34-C ) :   2.3271
B(  3-C ,  4-C ) :   1.2879 B(  3-C ,  7-C ) :   0.1114 B(  3-C ,  8-C ) :   1.4385
B(  4-C ,  5-C ) :   1.2210 B(  4-C ,  6-C ) :   0.1195 B(  4-C , 11-C ) :   1.2990
B(  5-C ,  6-C ) :   1.4992 B(  5-C ,  9-H ) :   0.9689 B(  6-C ,  7-C ) :   1.3458
B(  6-C ,  8-C ) :   0.1092 B(  6-C , 34-C ) :   0.1055 B(  7-C ,  8-C ) :   1.4158
B(  7-C , 22-C ) :   0.9646 B(  8-C , 10-H ) :   0.9709 B( 11-C , 12-H ) :   0.9827
B( 11-C , 13-C ) :   1.0005 B( 13-C , 14-H ) :   0.9548 B( 13-C , 15-H ) :   0.9548
B( 13-C , 16-C ) :   0.9824 B( 16-C , 17-H ) :   0.9719 B( 16-C , 18-H ) :   0.9719
B( 16-C , 19-C ) :   0.9622 B( 19-C , 20-H ) :   0.9727 B( 19-C , 21-H ) :   0.9727
B( 19-C , 35-H ) :   0.9670 B( 22-C , 23-H ) :   0.9543 B( 22-C , 24-H ) :   0.9547
B( 22-C , 25-C ) :   1.0254 B( 25-C , 26-H ) :   0.9606 B( 25-C , 27-H ) :   0.9607
B( 25-C , 28-C ) :   0.9883 B( 28-C , 29-H ) :   0.9710 B( 28-C , 30-H ) :   0.9710
B( 28-C , 31-C ) :   0.9549 B( 31-C , 32-H ) :   0.9730 B( 31-C , 33-H ) :   0.9730
B( 31-C , 36-H ) :   0.9668 B( 34-C , 37-C ) :   0.9591 B( 37-C , 38-C ) :   1.3827
B( 37-C , 39-C ) :   0.1082 B( 37-C , 41-C ) :   0.1066 B( 37-C , 42-C ) :   1.3755
B( 38-C , 39-C ) :   1.4960 B( 38-C , 45-H ) :   0.9770 B( 39-C , 40-C ) :   1.3674
B( 39-C , 47-H ) :   0.9743 B( 40-C , 41-C ) :   1.3713 B( 40-C , 61-C ) :   0.9151
B( 41-C , 42-C ) :   1.4978 B( 41-C , 44-H ) :   0.9753 B( 42-C , 46-H ) :   0.9761
B( 43-H , 62-C ) :   0.9816 B( 48-C , 49-C ) :   1.3721 B( 48-C , 50-C ) :   0.1061
B( 48-C , 52-C ) :   0.1070 B( 48-C , 53-C ) :   1.3693 B( 49-C , 50-C ) :   1.5001
B( 49-C , 56-H ) :   0.9768 B( 50-C , 51-C ) :   1.3683 B( 50-C , 58-H ) :   0.9751
B( 51-C , 52-C ) :   1.3668 B( 51-C , 59-C ) :   0.9174 B( 52-C , 53-C ) :   1.4987
B( 52-C , 55-H ) :   0.9744 B( 53-C , 57-H ) :   0.9773 B( 54-H , 60-C ) :   0.9818
B( 59-C , 60-C ) :   2.7781 B( 61-C , 62-C ) :   2.7801

FINAL SINGLE POINT ENERGY     -1312.127635256715

DIPOLE MOMENT
-------------
                                X             Y             Z
Electronic contribution:      0.38227      -1.97955       0.00373
Nuclear contribution   :     -0.55927       1.92253      -0.00390
                        -----------------------------------------
Total Dipole Moment    :     -0.17700      -0.05702      -0.00017
                        -----------------------------------------
Magnitude (a.u.)       :      0.18596
Magnitude (Debye)      :      0.47266

Rotational constants in cm-1:     0.005920     0.001229     0.001019
Rotational constants in MHz :   177.478005    36.835670    30.545032

CHEMICAL SHIELDING SUMMARY (ppm)  --  Orbital contribution
----------------------------------------------------------

  Nucleus  Element    Isotropic     Anisotropy
  -------  -------  ------------   ------------
      9       H           89.766         80.745
     10       H           95.912         70.021
     12       H           79.986         28.332
     14       H           89.683         30.476
     15       H           89.739         30.420
     17       H           47.581         37.612
     18       H           47.536         37.596
     20       H           34.009         24.782
     21       H           33.961         24.827
     23       H           91.067         59.542
     24       H           91.017         59.579
     26       H           98.974         30.368
     27       H           99.038         30.428
     29       H           45.763         38.647
     30       H           45.704         38.700
     32       H           40.367         24.395
     33       H           40.327         24.360
     35       H          -51.803         17.984
     36       H          -49.567         17.389
     43       H         -246.493       -228.882
     44       H          -44.277         -1.633
     45       H          117.203         20.314
     46       H          117.058         23.643
     47       H          -44.554         -1.805
     54       H         -245.696       -225.350
     55       H          -37.667         -0.593
     56       H          110.047         21.767
     57       H          123.817         21.236
     58       H          -50.400         -3.383

                             ****ORCA TERMINATED NORMALLY****
TOTAL RUN TIME: 0 days 4 hours 12 minutes 2 seconds 938 msec
