                         Program Version 5.0.4 -  RELEASE  -
|  1> ! B3LYP EPR-II AUTOAUX
|  2> %pal nprocs 16 end
|  3> *XYZFile 0 2 opt_EPRII.xyz
|  4> %EPRNMR
|  5>         GTENSOR   TRUE
|  6>         NUCLEI    = ALL H {SHIFT, AISO, ADIP, AORB}
|  7>         ORI       GIAO
|  8> END
|  9>
| 10>                          ****END OF INPUT****

CARTESIAN COORDINATES (ANGSTROEM)
---------------------------------
  C     12.372489   -0.025694   -0.003889
  C     11.145150   -0.063215   -0.002922
  C      5.462565   -0.006914   -0.000347
  C      9.723233   -0.084547   -0.002710
  C      8.991612   -1.334937   -0.006044
  C      7.568096   -1.243467   -0.004816
  C      6.893004   -0.016325   -0.001072
  C      7.626849    1.217846    0.001815
  C      9.022388    1.141947    0.000985
  H      6.979314   -2.154004   -0.007037
  H      9.609097    2.053376    0.003244
  C      9.656444   -2.584161   -0.010623
  H     10.743169   -2.571699   -0.011790
  C      8.970918   -3.924775   -0.013973
  H      8.311313   -4.012213    0.864083
  H      8.304814   -4.004599   -0.887804
  C      9.953853   -5.110550   -0.022881
  H     10.602571   -5.031957   -0.904622
  H     10.609737   -5.039380    0.854189
  C      9.243243   -6.474227   -0.025747
  H      8.602628   -6.583208   -0.908211
  H      8.610016   -6.590784    0.861075
  C      6.874312    2.537488    0.005734
  H      6.204452    2.553007   -0.865237
  H      6.206907    2.549285    0.878661
  C      7.726669    3.816139    0.007239
  H      8.383786    3.826556    0.887031
  H      8.381500    3.830052   -0.874213
  C      6.866889    5.093260    0.010916
  H      6.207411    5.087681   -0.867152
  H      6.209834    5.084269    0.890772
  C      7.707141    6.382065    0.012271
  H      8.350874    6.433206   -0.873088
  H      8.353723    6.429474    0.895760
  C      4.236866    0.003382    0.000853
  H      9.964186   -7.297992   -0.032279
  H      7.070770    7.273014    0.015172
  C      2.807403    0.008084    0.001450
  C      2.080609   -1.208579    0.000892
  C      0.685809   -1.204208    0.001358
  C     -0.030286    0.016401    0.002394
  C      0.692950    1.232841    0.002976
  C      2.087722    1.228900    0.002522
  H     -3.751620    0.027739    0.003502
  H      0.149364    2.172613    0.003768
  H      2.623629   -2.148642    0.000085
  H      2.635780    2.165988    0.002952
  H      0.136645   -2.140732    0.000917
  C     13.798775    0.029931   -0.004164
  C     14.572713   -1.158310   -0.005597
  C     15.965943   -1.100729   -0.005685
  C     16.635454    0.146381   -0.004361
  C     15.865940    1.334446   -0.002981
  C     14.472741    1.277822   -0.002884
  H     20.353446    0.300448   -0.004355
  H     16.373507    2.294185   -0.001977
  H     14.067080   -2.118971   -0.006570
  H     13.889054    2.193181   -0.001801
  H     16.550261   -2.015759   -0.006746
  C     18.068874    0.205329   -0.004397
  C     19.288394    0.255839   -0.004359
  C     -1.465183    0.020681    0.002826
  C     -2.685611    0.024498    0.003190

 Total Charge           Charge          ....    0
 Multiplicity           Mult            ....    2
 Number of Electrons    NEL             ....  233
 Basis Dimension        Dim             ....  781

ORBITAL ENERGIES
----------------
                 SPIN UP ORBITALS
  NO   OCC          E(Eh)            E(eV)
   0   1.0000     -10.236794      -278.5573
   1   1.0000     -10.236362      -278.5456
   2   1.0000     -10.235098      -278.5112
   3   1.0000     -10.234888      -278.5055
   4   1.0000     -10.228342      -278.3273
   5   1.0000     -10.226481      -278.2767
   6   1.0000     -10.215628      -277.9814
   7   1.0000     -10.213970      -277.9363
   8   1.0000     -10.213879      -277.9338
   9   1.0000     -10.212978      -277.9093
  10   1.0000     -10.212843      -277.9056
  11   1.0000     -10.212783      -277.9040
  12   1.0000     -10.212682      -277.9012
  13   1.0000     -10.212385      -277.8931
  14   1.0000     -10.212225      -277.8888
  15   1.0000     -10.211704      -277.8746
  16   1.0000     -10.211416      -277.8667
  17   1.0000     -10.211275      -277.8629
  18   1.0000     -10.208923      -277.7989
  19   1.0000     -10.207853      -277.7698
  20   1.0000     -10.206714      -277.7388
  21   1.0000     -10.205634      -277.7094
  22   1.0000     -10.205619      -277.7090
  23   1.0000     -10.203522      -277.6520
  24   1.0000     -10.202261      -277.6176
  25   1.0000     -10.202041      -277.6116
  26   1.0000     -10.200485      -277.5693
  27   1.0000     -10.191973      -277.3377
  28   1.0000     -10.190449      -277.2962
  29   1.0000     -10.186730      -277.1950
  30   1.0000     -10.184198      -277.1261
  31   1.0000     -10.183755      -277.1141
  32   1.0000     -10.175302      -276.8841
  33   1.0000     -10.173140      -276.8252
  34   1.0000      -0.876367       -23.8472
  35   1.0000      -0.874267       -23.7900
  36   1.0000      -0.872775       -23.7494
  37   1.0000      -0.822463       -22.3804
  38   1.0000      -0.808519       -22.0009
  39   1.0000      -0.806244       -21.9390
  40   1.0000      -0.796529       -21.6747
  41   1.0000      -0.792596       -21.5676
  42   1.0000      -0.769218       -20.9315
  43   1.0000      -0.760438       -20.6926
  44   1.0000      -0.759408       -20.6645
  45   1.0000      -0.759127       -20.6569
  46   1.0000      -0.747379       -20.3372
  47   1.0000      -0.735980       -20.0270
  48   1.0000      -0.726455       -19.7678
  49   1.0000      -0.713701       -19.4208
  50   1.0000      -0.699545       -19.0356
  51   1.0000      -0.660703       -17.9786
  52   1.0000      -0.658198       -17.9105
  53   1.0000      -0.643195       -17.5022
  54   1.0000      -0.623938       -16.9782
  55   1.0000      -0.621173       -16.9030
  56   1.0000      -0.619764       -16.8646
  57   1.0000      -0.619022       -16.8444
  58   1.0000      -0.595838       -16.2136
  59   1.0000      -0.584092       -15.8940
  60   1.0000      -0.566139       -15.4054
  61   1.0000      -0.555967       -15.1286
  62   1.0000      -0.554706       -15.0943
  63   1.0000      -0.544657       -14.8209
  64   1.0000      -0.536270       -14.5926
  65   1.0000      -0.511149       -13.9091
  66   1.0000      -0.509305       -13.8589
  67   1.0000      -0.499558       -13.5937
  68   1.0000      -0.494026       -13.4431
  69   1.0000      -0.481136       -13.0924
  70   1.0000      -0.474181       -12.9031
  71   1.0000      -0.472363       -12.8536
  72   1.0000      -0.470706       -12.8086
  73   1.0000      -0.466384       -12.6909
  74   1.0000      -0.448777       -12.2119
  75   1.0000      -0.447216       -12.1694
  76   1.0000      -0.436700       -11.8832
  77   1.0000      -0.434110       -11.8127
  78   1.0000      -0.432704       -11.7745
  79   1.0000      -0.432147       -11.7593
  80   1.0000      -0.428279       -11.6541
  81   1.0000      -0.425779       -11.5860
  82   1.0000      -0.414451       -11.2778
  83   1.0000      -0.402724       -10.9587
  84   1.0000      -0.401228       -10.9180
  85   1.0000      -0.394195       -10.7266
  86   1.0000      -0.393452       -10.7064
  87   1.0000      -0.387850       -10.5539
  88   1.0000      -0.386894       -10.5279
  89   1.0000      -0.382831       -10.4174
  90   1.0000      -0.381834       -10.3902
  91   1.0000      -0.367925       -10.0117
  92   1.0000      -0.364370        -9.9150
  93   1.0000      -0.362878        -9.8744
  94   1.0000      -0.359864        -9.7924
  95   1.0000      -0.359787        -9.7903
  96   1.0000      -0.345855        -9.4112
  97   1.0000      -0.341385        -9.2896
  98   1.0000      -0.337604        -9.1867
  99   1.0000      -0.335201        -9.1213
 100   1.0000      -0.332821        -9.0565
 101   1.0000      -0.330006        -8.9799
 102   1.0000      -0.327651        -8.9158
 103   1.0000      -0.324987        -8.8433
 104   1.0000      -0.312797        -8.5117
 105   1.0000      -0.286533        -7.7970
 106   1.0000      -0.282184        -7.6786
 107   1.0000      -0.280864        -7.6427
 108   1.0000      -0.275714        -7.5026
 109   1.0000      -0.274469        -7.4687
 110   1.0000      -0.272864        -7.4250
 111   1.0000      -0.267723        -7.2851
 112   1.0000      -0.266931        -7.2635
 113   1.0000      -0.261422        -7.1137
 114   1.0000      -0.231830        -6.3084
 115   1.0000      -0.211159        -5.7459
 116   1.0000      -0.175092        -4.7645
 117   0.0000      -0.079161        -2.1541
 118   0.0000      -0.053389        -1.4528
 119   0.0000      -0.022582        -0.6145
 120   0.0000      -0.021470        -0.5842
 121   0.0000      -0.018826        -0.5123

                 SPIN DOWN ORBITALS
  NO   OCC          E(Eh)            E(eV)
   0   1.0000     -10.236612      -278.5524
   1   1.0000     -10.236547      -278.5506
   2   1.0000     -10.235493      -278.5219
   3   1.0000     -10.234433      -278.4931
   4   1.0000     -10.228091      -278.3205
   5   1.0000     -10.224988      -278.2361
   6   1.0000     -10.215233      -277.9706
   7   1.0000     -10.213908      -277.9346
   8   1.0000     -10.213813      -277.9320
   9   1.0000     -10.213119      -277.9131
  10   1.0000     -10.212987      -277.9095
  11   1.0000     -10.212626      -277.8997
  12   1.0000     -10.212531      -277.8971
  13   1.0000     -10.212396      -277.8934
  14   1.0000     -10.212253      -277.8895
  15   1.0000     -10.211417      -277.8668
  16   1.0000     -10.211376      -277.8657
  17   1.0000     -10.211063      -277.8572
  18   1.0000     -10.208958      -277.7999
  19   1.0000     -10.207801      -277.7684
  20   1.0000     -10.206843      -277.7423
  21   1.0000     -10.205278      -277.6997
  22   1.0000     -10.203618      -277.6546
  23   1.0000     -10.202506      -277.6243
  24   1.0000     -10.202061      -277.6122
  25   1.0000     -10.202019      -277.6110
  26   1.0000     -10.192649      -277.3561
  27   1.0000     -10.192230      -277.3447
  28   1.0000     -10.190641      -277.3014
  29   1.0000     -10.186695      -277.1941
  30   1.0000     -10.184196      -277.1260
  31   1.0000     -10.183756      -277.1141
  32   1.0000     -10.175312      -276.8843
  33   1.0000     -10.173142      -276.8253
  34   1.0000      -0.875253       -23.8168
  35   1.0000      -0.873402       -23.7665
  36   1.0000      -0.871185       -23.7062
  37   1.0000      -0.818435       -22.2708
  38   1.0000      -0.807144       -21.9635
  39   1.0000      -0.805403       -21.9161
  40   1.0000      -0.794432       -21.6176
  41   1.0000      -0.791542       -21.5389
  42   1.0000      -0.767293       -20.8791
  43   1.0000      -0.760574       -20.6963
  44   1.0000      -0.759023       -20.6541
  45   1.0000      -0.758798       -20.6479
  46   1.0000      -0.746844       -20.3227
  47   1.0000      -0.733267       -19.9532
  48   1.0000      -0.724785       -19.7224
  49   1.0000      -0.712759       -19.3952
  50   1.0000      -0.697380       -18.9767
  51   1.0000      -0.659430       -17.9440
  52   1.0000      -0.655463       -17.8360
  53   1.0000      -0.642938       -17.4952
  54   1.0000      -0.622654       -16.9433
  55   1.0000      -0.621252       -16.9051
  56   1.0000      -0.619487       -16.8571
  57   1.0000      -0.613992       -16.7076
  58   1.0000      -0.594961       -16.1897
  59   1.0000      -0.582492       -15.8504
  60   1.0000      -0.563374       -15.3302
  61   1.0000      -0.556063       -15.1313
  62   1.0000      -0.554447       -15.0873
  63   1.0000      -0.544065       -14.8047
  64   1.0000      -0.535463       -14.5707
  65   1.0000      -0.509169       -13.8552
  66   1.0000      -0.507656       -13.8140
  67   1.0000      -0.498978       -13.5779
  68   1.0000      -0.493151       -13.4193
  69   1.0000      -0.479711       -13.0536
  70   1.0000      -0.473329       -12.8799
  71   1.0000      -0.472378       -12.8541
  72   1.0000      -0.470474       -12.8022
  73   1.0000      -0.463023       -12.5995
  74   1.0000      -0.448774       -12.2118
  75   1.0000      -0.447007       -12.1637
  76   1.0000      -0.435406       -11.8480
  77   1.0000      -0.434142       -11.8136
  78   1.0000      -0.432605       -11.7718
  79   1.0000      -0.429883       -11.6977
  80   1.0000      -0.427043       -11.6204
  81   1.0000      -0.423341       -11.5197
  82   1.0000      -0.414058       -11.2671
  83   1.0000      -0.400182       -10.8895
  84   1.0000      -0.396405       -10.7867
  85   1.0000      -0.393998       -10.7212
  86   1.0000      -0.391549       -10.6546
  87   1.0000      -0.387940       -10.5564
  88   1.0000      -0.386449       -10.5158
  89   1.0000      -0.379608       -10.3297
  90   1.0000      -0.379341       -10.3224
  91   1.0000      -0.366802        -9.9812
  92   1.0000      -0.364390        -9.9156
  93   1.0000      -0.362713        -9.8699
  94   1.0000      -0.358939        -9.7672
  95   1.0000      -0.356812        -9.7094
  96   1.0000      -0.345355        -9.3976
  97   1.0000      -0.339055        -9.2262
  98   1.0000      -0.335538        -9.1304
  99   1.0000      -0.334728        -9.1084
 100   1.0000      -0.331398        -9.0178
 101   1.0000      -0.329638        -8.9699
 102   1.0000      -0.327295        -8.9061
 103   1.0000      -0.324342        -8.8258
 104   1.0000      -0.310704        -8.4547
 105   1.0000      -0.283360        -7.7106
 106   1.0000      -0.282218        -7.6795
 107   1.0000      -0.280762        -7.6399
 108   1.0000      -0.274324        -7.4647
 109   1.0000      -0.272456        -7.4139
 110   1.0000      -0.268114        -7.2958
 111   1.0000      -0.265988        -7.2379
 112   1.0000      -0.262643        -7.1469
 113   1.0000      -0.258840        -7.0434
 114   1.0000      -0.230446        -6.2708
 115   1.0000      -0.204476        -5.5641
 116   0.0000      -0.092999        -2.5306
 117   0.0000      -0.070606        -1.9213
 118   0.0000      -0.051376        -1.3980
 119   0.0000      -0.022903        -0.6232
 120   0.0000      -0.020717        -0.5637

MULLIKEN ATOMIC CHARGES AND SPIN POPULATIONS
--------------------------------------------
   0 C :   -0.440215    0.095789
   1 C :   -0.379413   -0.066685
   2 C :   -0.382831    0.029553
   3 C :    0.501784    0.203279
   4 C :    0.375033   -0.138037
   5 C :   -0.446845    0.212394
   6 C :    0.564179   -0.091459
   7 C :    0.232254    0.218630
   8 C :   -0.386066   -0.109544
   9 H :    0.133024   -0.011401
  10 H :    0.134632    0.005101
  11 C :   -0.265210    0.690883
  12 H :    0.126350   -0.036226
  13 C :   -0.273198   -0.044623
  14 H :    0.153342    0.029198
  15 H :    0.153107    0.029062
  16 C :   -0.290414    0.002179
  17 H :    0.155485   -0.000150
  18 H :    0.155326   -0.000147
  19 C :   -0.510147   -0.000770
  20 H :    0.159732    0.000163
  21 H :    0.159737    0.000164
  22 C :   -0.356393   -0.016441
  23 H :    0.152608    0.010057
  24 H :    0.152700    0.010082
  25 C :   -0.273860    0.000899
  26 H :    0.142521    0.000167
  27 H :    0.142611    0.000168
  28 C :   -0.262948   -0.000227
  29 H :    0.144604    0.000041
  30 H :    0.144624    0.000041
  31 C :   -0.511313   -0.000083
  32 H :    0.160194    0.000023
  33 H :    0.160180    0.000022
  34 C :   -0.425469   -0.044215
  35 H :    0.147021   -0.000164
  36 H :    0.144794   -0.000005
  37 C :    0.657133    0.010312
  38 C :   -0.260660   -0.011184
  39 C :   -0.257012    0.006359
  40 C :    0.609703   -0.011542
  41 C :   -0.262644    0.006357
  42 C :   -0.248982   -0.011222
  43 H :    0.187040    0.000292
  44 H :    0.123785   -0.000318
  45 H :    0.122647    0.000585
  46 H :    0.122245    0.000586
  47 H :    0.124024   -0.000317
  48 C :    0.665121   -0.021671
  49 C :   -0.257846    0.025961
  50 C :   -0.259216   -0.014990
  51 C :    0.605284    0.028398
  52 C :   -0.258831   -0.015032
  53 C :   -0.256107    0.026321
  54 H :    0.186666   -0.000740
  55 H :    0.123562    0.000749
  56 H :    0.119295   -0.001346
  57 H :    0.122018   -0.001396
  58 H :    0.123445    0.000751
  59 C :   -0.065739   -0.009200
  60 C :   -0.495838    0.018081
  61 C :   -0.066144    0.003715
  62 C :   -0.494466   -0.007231
Sum of atomic charges         :   -0.0000000

LOEWDIN ATOMIC CHARGES AND SPIN POPULATIONS
-------------------------------------------
   0 C :   -0.038155    0.071747
   1 C :   -0.024970   -0.030382
   2 C :   -0.022625    0.017536
   3 C :   -0.054159    0.159385
   4 C :   -0.066021   -0.072182
   5 C :    0.010472    0.168801
   6 C :   -0.067565   -0.059282
   7 C :   -0.039655    0.172043
   8 C :   -0.008460   -0.064904
   9 H :    0.059647    0.001212
  10 H :    0.061108   -0.000577
  11 C :   -0.006467    0.570739
  12 H :    0.056968    0.004525
  13 C :   -0.082492    0.003440
  14 H :    0.054508    0.023915
  15 H :    0.054433    0.023790
  16 C :   -0.087785    0.000927
  17 H :    0.042260   -0.000048
  18 H :    0.042227   -0.000048
  19 C :   -0.077522   -0.000163
  20 H :    0.034451    0.000198
  21 H :    0.034451    0.000199
  22 C :   -0.044953    0.001583
  23 H :    0.059383    0.008001
  24 H :    0.059395    0.008019
  25 C :   -0.079547    0.000187
  26 H :    0.044751    0.000006
  27 H :    0.044780    0.000005
  28 C :   -0.090347   -0.000005
  29 H :    0.040891    0.000058
  30 H :    0.040894    0.000058
  31 C :   -0.078388   -0.000034
  32 H :    0.034220    0.000015
  33 H :    0.034220    0.000014
  34 C :   -0.036264   -0.034176
  35 H :    0.032680   -0.000083
  36 H :    0.031901   -0.000006
  37 C :   -0.066979    0.005825
  38 C :   -0.009999   -0.008831
  39 C :   -0.008583    0.004109
  40 C :   -0.072864   -0.008902
  41 C :   -0.008919    0.004105
  42 C :   -0.010442   -0.008819
  43 H :    0.046381   -0.000036
  44 H :    0.059025    0.000027
  45 H :    0.058205   -0.000031
  46 H :    0.057973   -0.000032
  47 H :    0.059090    0.000027
  48 C :   -0.066851   -0.012428
  49 C :   -0.011712    0.020662
  50 C :   -0.009348   -0.009644
  51 C :   -0.073815    0.021918
  52 C :   -0.009014   -0.009638
  53 C :   -0.010564    0.020862
  54 H :    0.046177    0.000089
  55 H :    0.058959   -0.000064
  56 H :    0.057137    0.000074
  57 H :    0.058048    0.000076
  58 H :    0.058895   -0.000065
  59 C :   -0.034779   -0.004293
  60 C :   -0.050517    0.014591
  61 C :   -0.034682    0.001745
  62 C :   -0.049091   -0.005840

  Mayer bond orders larger than 0.100000
B(  0-C ,  1-C ) :   2.2780 B(  0-C ,  3-C ) :   0.1025 B(  0-C , 48-C ) :   0.9716
B(  1-C ,  3-C ) :   0.7804 B(  2-C ,  6-C ) :   0.7371 B(  2-C , 34-C ) :   2.3333
B(  3-C ,  4-C ) :   1.2845 B(  3-C ,  7-C ) :   0.1066 B(  3-C ,  8-C ) :   1.4369
B(  4-C ,  5-C ) :   1.2242 B(  4-C ,  6-C ) :   0.1145 B(  4-C , 11-C ) :   1.2952
B(  5-C ,  6-C ) :   1.4968 B(  5-C ,  9-H ) :   0.9676 B(  6-C ,  7-C ) :   1.3417
B(  6-C ,  8-C ) :   0.1072 B(  6-C , 34-C ) :   0.1013 B(  7-C ,  8-C ) :   1.4164
B(  7-C , 22-C ) :   0.9636 B(  8-C , 10-H ) :   0.9697 B( 11-C , 12-H ) :   0.9823
B( 11-C , 13-C ) :   0.9983 B( 13-C , 14-H ) :   0.9558 B( 13-C , 15-H ) :   0.9557
B( 13-C , 16-C ) :   0.9818 B( 16-C , 17-H ) :   0.9722 B( 16-C , 18-H ) :   0.9721
B( 16-C , 19-C ) :   0.9624 B( 19-C , 20-H ) :   0.9727 B( 19-C , 21-H ) :   0.9727
B( 19-C , 35-H ) :   0.9671 B( 22-C , 23-H ) :   0.9547 B( 22-C , 24-H ) :   0.9550
B( 22-C , 25-C ) :   1.0241 B( 25-C , 26-H ) :   0.9614 B( 25-C , 27-H ) :   0.9615
B( 25-C , 28-C ) :   0.9863 B( 28-C , 29-H ) :   0.9716 B( 28-C , 30-H ) :   0.9716
B( 28-C , 31-C ) :   0.9551 B( 31-C , 32-H ) :   0.9730 B( 31-C , 33-H ) :   0.9730
B( 31-C , 36-H ) :   0.9670 B( 34-C , 37-C ) :   0.9558 B( 37-C , 38-C ) :   1.3821
B( 37-C , 39-C ) :   0.1048 B( 37-C , 41-C ) :   0.1034 B( 37-C , 42-C ) :   1.3741
B( 38-C , 39-C ) :   1.4958 B( 38-C , 45-H ) :   0.9762 B( 39-C , 40-C ) :   1.3682
B( 39-C , 47-H ) :   0.9735 B( 40-C , 41-C ) :   1.3723 B( 40-C , 61-C ) :   0.9100
B( 41-C , 42-C ) :   1.4973 B( 41-C , 44-H ) :   0.9746 B( 42-C , 46-H ) :   0.9754
B( 43-H , 62-C ) :   0.9806 B( 48-C , 49-C ) :   1.3709 B( 48-C , 50-C ) :   0.1029
B( 48-C , 52-C ) :   0.1038 B( 48-C , 53-C ) :   1.3692 B( 49-C , 50-C ) :   1.4998
B( 49-C , 56-H ) :   0.9761 B( 50-C , 51-C ) :   1.3691 B( 50-C , 58-H ) :   0.9744
B( 51-C , 52-C ) :   1.3674 B( 51-C , 59-C ) :   0.9122 B( 52-C , 53-C ) :   1.4984
B( 52-C , 55-H ) :   0.9736 B( 53-C , 57-H ) :   0.9766 B( 54-H , 60-C ) :   0.9808
B( 59-C , 60-C ) :   2.7820 B( 61-C , 62-C ) :   2.7839

FINAL SINGLE POINT ENERGY     -1312.129053756320

DIPOLE MOMENT
-------------
                                X             Y             Z
Electronic contribution:      0.30928      -1.97873       0.02598
Nuclear contribution   :     -0.48165       1.92184      -0.02647
                        -----------------------------------------
Total Dipole Moment    :     -0.17237      -0.05690      -0.00049
                        -----------------------------------------
Magnitude (a.u.)       :      0.18151
Magnitude (Debye)      :      0.46137

Rotational constants in cm-1:     0.005903     0.001223     0.001015
Rotational constants in MHz :   176.956112    36.669599    30.415046

CHEMICAL SHIELDING SUMMARY (ppm)  --  Orbital contribution
----------------------------------------------------------

  Nucleus  Element    Isotropic     Anisotropy
  -------  -------  ------------   ------------
      9       H           24.440         12.284
     10       H           24.558         13.244
     12       H           25.313         11.944
     14       H           29.338          4.599
     15       H           29.336          4.616
     17       H           30.051          6.811
     18       H           30.051          6.831
     20       H           30.951          8.087
     21       H           30.950          8.083
     23       H           28.988          6.137
     24       H           28.989          6.120
     26       H           30.178          5.031
     27       H           30.179          5.023
     29       H           30.298          6.433
     30       H           30.298          6.430
     32       H           30.915          8.076
     33       H           30.915          8.076
     35       H           30.658         10.341
     36       H           30.686         10.523
     43       H           28.687         10.949
     44       H           24.130          7.550
     45       H           24.187          8.003
     46       H           24.161          8.160
     47       H           24.116          7.216
     54       H           28.687         10.911
     55       H           24.131          7.281
     56       H           24.220          7.900
     57       H           24.224          7.898
     58       H           24.137          7.452

                             ****ORCA TERMINATED NORMALLY****
TOTAL RUN TIME: 0 days 4 hours 12 minutes 51 seconds 552 msec
