                         Program Version 5.0.4 -  RELEASE  -
|  1> ! B3LYP EPR-II AUTOAUX
|  2> %pal nprocs 16 end
|  3> *XYZFile 0 2 opt.xyz
|  4> %EPRNMR
|  5>         GTENSOR   TRUE
|  6>         NUCLEI    = ALL H {SHIFT, AISO, ADIP, AORB}
|  7> END
|  8>
|  9>                          ****END OF INPUT****

CARTESIAN COORDINATES (ANGSTROEM)
---------------------------------
  C     12.367468   -0.026690   -0.004521
  C     11.143536   -0.068421   -0.003249
  C      5.470105   -0.000456   -0.000953
  C      9.724522   -0.088645   -0.002867
  C      8.990628   -1.335024   -0.006403
  C      7.570759   -1.236349   -0.005487
  C      6.897637   -0.011889   -0.001450
  C      7.634424    1.217416    0.002056
  C      9.026112    1.135702    0.001259
  H      6.974675   -2.149130   -0.008114
  H      9.619812    2.049654    0.003881
  C      9.646865   -2.583921   -0.010645
  H     10.739981   -2.573932   -0.011197
  C      8.960510   -3.917165   -0.014594
  H      8.287887   -4.000132    0.864048
  H      8.286468   -3.994223   -0.892681
  C      9.932017   -5.104805   -0.019413
  H     10.591664   -5.026394   -0.902868
  H     10.593459   -5.032110    0.863189
  C      9.223189   -6.460465   -0.023106
  H      8.579052   -6.573687   -0.912248
  H      8.580972   -6.579530    0.866660
  C      6.888617    2.535280    0.006628
  H      6.209492    2.550134   -0.866458
  H      6.212355    2.545704    0.882021
  C      7.733771    3.811741    0.008515
  H      8.398339    3.820953    0.891977
  H      8.396097    3.824967   -0.876584
  C      6.878227    5.084572    0.012531
  H      6.210709    5.076758   -0.869130
  H      6.212980    5.072748    0.895865
  C      7.710095    6.369491    0.014397
  H      8.360072    6.427193   -0.875761
  H      8.362497    6.423053    0.903036
  C      4.247577    0.004948    0.000113
  H      9.945336   -7.292652   -0.026626
  H      7.068970    7.265890    0.017359
  C      2.821946    0.006500    0.000494
  C      2.097893   -1.206838   -0.000235
  C      0.707780   -1.204952    0.000050
  C     -0.010741    0.009504    0.001091
  C      0.710352    1.222515    0.001864
  C      2.100373    1.221345    0.001582
  H     -3.729592    0.014614    0.001756
  H      0.163384    2.167010    0.002651
  H      2.643820   -2.151876   -0.001021
  H      2.647986    2.165427    0.002150
  H      0.158864   -2.148310   -0.000515
  C     13.789722    0.031477   -0.005118
  C     14.565302   -1.150711   -0.007168
  C     15.953740   -1.090712   -0.007603
  C     16.621353    0.152770   -0.006014
  C     15.849687    1.334610   -0.003972
  C     14.461312    1.275873   -0.003524
  H     20.336530    0.314151   -0.006977
  H     16.356949    2.301040   -0.002743
  H     14.060641   -2.118439   -0.008361
  H     13.874663    2.196192   -0.001939
  H     16.541337   -2.010509   -0.009127
  C     18.050568    0.214344   -0.006425
  C     19.265095    0.266906   -0.006700
  C     -1.441545    0.011220    0.001350
  C     -2.657087    0.013045    0.001570

 Total Charge           Charge          ....    0
 Multiplicity           Mult            ....    2
 Number of Electrons    NEL             ....  233
 Basis Dimension        Dim             ....  781

ORBITAL ENERGIES
----------------
                 SPIN UP ORBITALS
  NO   OCC          E(Eh)            E(eV)
   0   1.0000     -10.235574      -278.5241
   1   1.0000     -10.235066      -278.5103
   2   1.0000     -10.233789      -278.4756
   3   1.0000     -10.233572      -278.4697
   4   1.0000     -10.227348      -278.3003
   5   1.0000     -10.225482      -278.2495
   6   1.0000     -10.214705      -277.9563
   7   1.0000     -10.213351      -277.9194
   8   1.0000     -10.213281      -277.9175
   9   1.0000     -10.212394      -277.8934
  10   1.0000     -10.212284      -277.8904
  11   1.0000     -10.211786      -277.8768
  12   1.0000     -10.211754      -277.8759
  13   1.0000     -10.211581      -277.8712
  14   1.0000     -10.211432      -277.8672
  15   1.0000     -10.211060      -277.8571
  16   1.0000     -10.210766      -277.8491
  17   1.0000     -10.209990      -277.8279
  18   1.0000     -10.208045      -277.7750
  19   1.0000     -10.206849      -277.7425
  20   1.0000     -10.205781      -277.7134
  21   1.0000     -10.205225      -277.6983
  22   1.0000     -10.204592      -277.6811
  23   1.0000     -10.202984      -277.6373
  24   1.0000     -10.201903      -277.6079
  25   1.0000     -10.201698      -277.6023
  26   1.0000     -10.200053      -277.5575
  27   1.0000     -10.193060      -277.3673
  28   1.0000     -10.191315      -277.3198
  29   1.0000     -10.187988      -277.2292
  30   1.0000     -10.185348      -277.1574
  31   1.0000     -10.185027      -277.1487
  32   1.0000     -10.177463      -276.9428
  33   1.0000     -10.175317      -276.8845
  34   1.0000      -0.877993       -23.8914
  35   1.0000      -0.876150       -23.8412
  36   1.0000      -0.874603       -23.7992
  37   1.0000      -0.823710       -22.4143
  38   1.0000      -0.809720       -22.0336
  39   1.0000      -0.807523       -21.9738
  40   1.0000      -0.797603       -21.7039
  41   1.0000      -0.793627       -21.5957
  42   1.0000      -0.770022       -20.9534
  43   1.0000      -0.760865       -20.7042
  44   1.0000      -0.760483       -20.6938
  45   1.0000      -0.759500       -20.6671
  46   1.0000      -0.748399       -20.3650
  47   1.0000      -0.736656       -20.0454
  48   1.0000      -0.727182       -19.7876
  49   1.0000      -0.714340       -19.4382
  50   1.0000      -0.699590       -19.0368
  51   1.0000      -0.661243       -17.9933
  52   1.0000      -0.658095       -17.9077
  53   1.0000      -0.643842       -17.5198
  54   1.0000      -0.624262       -16.9870
  55   1.0000      -0.620656       -16.8889
  56   1.0000      -0.619144       -16.8478
  57   1.0000      -0.618051       -16.8180
  58   1.0000      -0.594816       -16.1858
  59   1.0000      -0.582436       -15.8489
  60   1.0000      -0.564796       -15.3689
  61   1.0000      -0.555533       -15.1168
  62   1.0000      -0.554224       -15.0812
  63   1.0000      -0.544410       -14.8141
  64   1.0000      -0.535944       -14.5838
  65   1.0000      -0.511110       -13.9080
  66   1.0000      -0.508905       -13.8480
  67   1.0000      -0.498931       -13.5766
  68   1.0000      -0.493726       -13.4350
  69   1.0000      -0.481947       -13.1144
  70   1.0000      -0.473632       -12.8882
  71   1.0000      -0.473295       -12.8790
  72   1.0000      -0.471914       -12.8414
  73   1.0000      -0.465307       -12.6616
  74   1.0000      -0.447680       -12.1820
  75   1.0000      -0.446060       -12.1379
  76   1.0000      -0.436407       -11.8752
  77   1.0000      -0.433160       -11.7869
  78   1.0000      -0.432693       -11.7742
  79   1.0000      -0.431679       -11.7466
  80   1.0000      -0.428544       -11.6613
  81   1.0000      -0.424839       -11.5605
  82   1.0000      -0.414141       -11.2694
  83   1.0000      -0.402074       -10.9410
  84   1.0000      -0.401763       -10.9325
  85   1.0000      -0.395435       -10.7603
  86   1.0000      -0.394424       -10.7328
  87   1.0000      -0.387932       -10.5562
  88   1.0000      -0.386898       -10.5280
  89   1.0000      -0.382449       -10.4070
  90   1.0000      -0.381724       -10.3872
  91   1.0000      -0.367784       -10.0079
  92   1.0000      -0.363160        -9.8821
  93   1.0000      -0.361727        -9.8431
  94   1.0000      -0.359904        -9.7935
  95   1.0000      -0.358575        -9.7573
  96   1.0000      -0.345950        -9.4138
  97   1.0000      -0.342643        -9.3238
  98   1.0000      -0.336941        -9.1686
  99   1.0000      -0.335219        -9.1218
 100   1.0000      -0.331912        -9.0318
 101   1.0000      -0.329973        -8.9790
 102   1.0000      -0.326027        -8.8716
 103   1.0000      -0.325436        -8.8556
 104   1.0000      -0.313293        -8.5251
 105   1.0000      -0.287011        -7.8100
 106   1.0000      -0.282800        -7.6954
 107   1.0000      -0.281451        -7.6587
 108   1.0000      -0.275749        -7.5035
 109   1.0000      -0.274827        -7.4784
 110   1.0000      -0.273146        -7.4327
 111   1.0000      -0.268170        -7.2973
 112   1.0000      -0.267318        -7.2741
 113   1.0000      -0.261903        -7.1267
 114   1.0000      -0.232116        -6.3162
 115   1.0000      -0.211240        -5.7481
 116   1.0000      -0.174721        -4.7544
 117   0.0000      -0.078703        -2.1416
 118   0.0000      -0.052664        -1.4331
 119   0.0000      -0.021388        -0.5820
 120   0.0000      -0.020220        -0.5502
 121   0.0000      -0.017893        -0.4869

                 SPIN DOWN ORBITALS
  NO   OCC          E(Eh)            E(eV)
   0   1.0000     -10.235400      -278.5194
   1   1.0000     -10.235243      -278.5151
   2   1.0000     -10.234177      -278.4861
   3   1.0000     -10.233121      -278.4574
   4   1.0000     -10.227077      -278.2929
   5   1.0000     -10.224004      -278.2093
   6   1.0000     -10.214213      -277.9429
   7   1.0000     -10.213299      -277.9180
   8   1.0000     -10.213225      -277.9160
   9   1.0000     -10.212524      -277.8969
  10   1.0000     -10.212418      -277.8940
  11   1.0000     -10.211890      -277.8797
  12   1.0000     -10.211743      -277.8757
  13   1.0000     -10.211381      -277.8658
  14   1.0000     -10.211341      -277.8647
  15   1.0000     -10.210741      -277.8484
  16   1.0000     -10.210423      -277.8397
  17   1.0000     -10.210125      -277.8316
  18   1.0000     -10.208074      -277.7758
  19   1.0000     -10.206801      -277.7412
  20   1.0000     -10.205915      -277.7171
  21   1.0000     -10.204229      -277.6712
  22   1.0000     -10.203074      -277.6398
  23   1.0000     -10.202127      -277.6140
  24   1.0000     -10.201614      -277.6000
  25   1.0000     -10.201462      -277.5959
  26   1.0000     -10.193717      -277.3852
  27   1.0000     -10.192169      -277.3430
  28   1.0000     -10.191510      -277.3251
  29   1.0000     -10.187951      -277.2282
  30   1.0000     -10.185346      -277.1574
  31   1.0000     -10.185027      -277.1487
  32   1.0000     -10.177472      -276.9431
  33   1.0000     -10.175319      -276.8845
  34   1.0000      -0.877158       -23.8687
  35   1.0000      -0.875236       -23.8164
  36   1.0000      -0.872769       -23.7493
  37   1.0000      -0.819656       -22.3040
  38   1.0000      -0.808380       -21.9971
  39   1.0000      -0.806653       -21.9501
  40   1.0000      -0.795495       -21.6465
  41   1.0000      -0.792571       -21.5669
  42   1.0000      -0.768093       -20.9009
  43   1.0000      -0.761000       -20.7079
  44   1.0000      -0.760096       -20.6833
  45   1.0000      -0.759172       -20.6581
  46   1.0000      -0.747860       -20.3503
  47   1.0000      -0.734016       -19.9736
  48   1.0000      -0.725402       -19.7392
  49   1.0000      -0.713426       -19.4133
  50   1.0000      -0.697366       -18.9763
  51   1.0000      -0.660151       -17.9636
  52   1.0000      -0.655193       -17.8287
  53   1.0000      -0.643614       -17.5136
  54   1.0000      -0.623029       -16.9535
  55   1.0000      -0.620740       -16.8912
  56   1.0000      -0.618898       -16.8411
  57   1.0000      -0.612963       -16.6796
  58   1.0000      -0.593910       -16.1611
  59   1.0000      -0.580841       -15.8055
  60   1.0000      -0.562172       -15.2975
  61   1.0000      -0.555615       -15.1191
  62   1.0000      -0.553972       -15.0743
  63   1.0000      -0.543804       -14.7977
  64   1.0000      -0.535121       -14.5614
  65   1.0000      -0.508838       -13.8462
  66   1.0000      -0.507421       -13.8076
  67   1.0000      -0.498440       -13.5632
  68   1.0000      -0.492881       -13.4120
  69   1.0000      -0.480551       -13.0765
  70   1.0000      -0.473641       -12.8884
  71   1.0000      -0.472419       -12.8552
  72   1.0000      -0.471675       -12.8349
  73   1.0000      -0.461865       -12.5680
  74   1.0000      -0.447669       -12.1817
  75   1.0000      -0.445865       -12.1326
  76   1.0000      -0.434668       -11.8279
  77   1.0000      -0.433186       -11.7876
  78   1.0000      -0.431589       -11.7441
  79   1.0000      -0.430914       -11.7258
  80   1.0000      -0.427291       -11.6272
  81   1.0000      -0.422246       -11.4899
  82   1.0000      -0.413697       -11.2573
  83   1.0000      -0.400733       -10.9045
  84   1.0000      -0.396875       -10.7995
  85   1.0000      -0.394838       -10.7441
  86   1.0000      -0.391655       -10.6575
  87   1.0000      -0.388034       -10.5589
  88   1.0000      -0.386474       -10.5165
  89   1.0000      -0.379486       -10.3263
  90   1.0000      -0.378920       -10.3109
  91   1.0000      -0.366639        -9.9768
  92   1.0000      -0.363180        -9.8826
  93   1.0000      -0.361542        -9.8381
  94   1.0000      -0.358979        -9.7683
  95   1.0000      -0.355543        -9.6748
  96   1.0000      -0.345576        -9.4036
  97   1.0000      -0.340331        -9.2609
  98   1.0000      -0.334886        -9.1127
  99   1.0000      -0.334734        -9.1086
 100   1.0000      -0.330308        -8.9881
 101   1.0000      -0.329624        -8.9695
 102   1.0000      -0.325337        -8.8529
 103   1.0000      -0.325083        -8.8460
 104   1.0000      -0.311250        -8.4695
 105   1.0000      -0.284002        -7.7281
 106   1.0000      -0.282834        -7.6963
 107   1.0000      -0.281350        -7.6559
 108   1.0000      -0.274681        -7.4744
 109   1.0000      -0.272732        -7.4214
 110   1.0000      -0.268558        -7.3078
 111   1.0000      -0.266376        -7.2485
 112   1.0000      -0.262696        -7.1483
 113   1.0000      -0.259301        -7.0559
 114   1.0000      -0.230722        -6.2783
 115   1.0000      -0.204580        -5.5669
 116   0.0000      -0.092907        -2.5281
 117   0.0000      -0.070182        -1.9098
 118   0.0000      -0.050667        -1.3787
 119   0.0000      -0.021704        -0.5906
 120   0.0000      -0.019468        -0.5298

MULLIKEN ATOMIC CHARGES AND SPIN POPULATIONS
--------------------------------------------
   0 C :   -0.440752    0.095359
   1 C :   -0.383240   -0.066170
   2 C :   -0.386349    0.028822
   3 C :    0.508007    0.202483
   4 C :    0.379009   -0.135970
   5 C :   -0.451679    0.211221
   6 C :    0.568970   -0.090176
   7 C :    0.239724    0.217309
   8 C :   -0.391199   -0.108187
   9 H :    0.131192   -0.011444
  10 H :    0.132844    0.005079
  11 C :   -0.261912    0.686122
  12 H :    0.124924   -0.036274
  13 C :   -0.269464   -0.045257
  14 H :    0.150652    0.030586
  15 H :    0.150628    0.030568
  16 C :   -0.282754    0.002241
  17 H :    0.152654   -0.000173
  18 H :    0.152611   -0.000171
  19 C :   -0.507294   -0.000750
  20 H :    0.157584    0.000174
  21 H :    0.157591    0.000174
  22 C :   -0.353334   -0.016606
  23 H :    0.149994    0.010505
  24 H :    0.150116    0.010539
  25 C :   -0.268566    0.000911
  26 H :    0.139635    0.000173
  27 H :    0.139723    0.000173
  28 C :   -0.254175   -0.000218
  29 H :    0.141626    0.000042
  30 H :    0.141641    0.000042
  31 C :   -0.508643   -0.000084
  32 H :    0.158061    0.000025
  33 H :    0.158051    0.000025
  34 C :   -0.425936   -0.043451
  35 H :    0.145400   -0.000166
  36 H :    0.143172   -0.000005
  37 C :    0.664327    0.009813
  38 C :   -0.261722   -0.010658
  39 C :   -0.257820    0.005905
  40 C :    0.616849   -0.011080
  41 C :   -0.263179    0.005898
  42 C :   -0.250667   -0.010697
  43 H :    0.185526    0.000273
  44 H :    0.121996   -0.000286
  45 H :    0.120893    0.000555
  46 H :    0.120542    0.000555
  47 H :    0.122215   -0.000286
  48 C :    0.672630   -0.021205
  49 C :   -0.259641    0.025559
  50 C :   -0.259661   -0.014613
  51 C :    0.612007    0.028074
  52 C :   -0.259598   -0.014659
  53 C :   -0.257043    0.025906
  54 H :    0.185130   -0.000734
  55 H :    0.121723    0.000732
  56 H :    0.117543   -0.001336
  57 H :    0.120252   -0.001385
  58 H :    0.121627    0.000735
  59 C :   -0.060524   -0.008916
  60 C :   -0.501067    0.017771
  61 C :   -0.061203    0.003394
  62 C :   -0.499644   -0.006787
Sum of atomic charges         :   -0.0000000

LOEWDIN ATOMIC CHARGES AND SPIN POPULATIONS
-------------------------------------------
   0 C :   -0.037460    0.071135
   1 C :   -0.024771   -0.029593
   2 C :   -0.022455    0.016852
   3 C :   -0.054803    0.158653
   4 C :   -0.067520   -0.070486
   5 C :    0.009428    0.167875
   6 C :   -0.068430   -0.058355
   7 C :   -0.041348    0.171091
   8 C :   -0.009830   -0.063748
   9 H :    0.061954    0.001052
  10 H :    0.063498   -0.000492
  11 C :   -0.009141    0.566750
  12 H :    0.059892    0.003917
  13 C :   -0.087405    0.003478
  14 H :    0.057042    0.024935
  15 H :    0.057033    0.024919
  16 C :   -0.093839    0.000960
  17 H :    0.044931   -0.000066
  18 H :    0.044922   -0.000066
  19 C :   -0.083720   -0.000126
  20 H :    0.036826    0.000212
  21 H :    0.036825    0.000213
  22 C :   -0.049128    0.001611
  23 H :    0.061883    0.008331
  24 H :    0.061903    0.008355
  25 C :   -0.084396    0.000187
  26 H :    0.047182    0.000006
  27 H :    0.047210    0.000006
  28 C :   -0.096222    0.000010
  29 H :    0.043467    0.000061
  30 H :    0.043472    0.000061
  31 C :   -0.084579   -0.000032
  32 H :    0.036580    0.000017
  33 H :    0.036578    0.000016
  34 C :   -0.035524   -0.033430
  35 H :    0.034948   -0.000082
  36 H :    0.034157   -0.000006
  37 C :   -0.068731    0.005458
  38 C :   -0.011939   -0.008444
  39 C :   -0.010480    0.003781
  40 C :   -0.074372   -0.008561
  41 C :   -0.010798    0.003775
  42 C :   -0.012288   -0.008430
  43 H :    0.049924   -0.000031
  44 H :    0.061384    0.000025
  45 H :    0.060567   -0.000025
  46 H :    0.060380   -0.000025
  47 H :    0.061440    0.000025
  48 C :   -0.068593   -0.012032
  49 C :   -0.013562    0.020354
  50 C :   -0.011259   -0.009340
  51 C :   -0.075373    0.021672
  52 C :   -0.010928   -0.009336
  53 C :   -0.012504    0.020545
  54 H :    0.049713    0.000072
  55 H :    0.061303   -0.000053
  56 H :    0.059513    0.000053
  57 H :    0.060408    0.000054
  58 H :    0.061243   -0.000054
  59 C :   -0.035759   -0.004060
  60 C :   -0.052118    0.014332
  61 C :   -0.035673    0.001515
  62 C :   -0.050660   -0.005488

  Mayer bond orders larger than 0.100000
B(  0-C ,  1-C ) :   2.2714 B(  0-C ,  3-C ) :   0.1074 B(  0-C , 48-C ) :   0.9754
B(  1-C ,  3-C ) :   0.7753 B(  2-C ,  6-C ) :   0.7320 B(  2-C , 34-C ) :   2.3270
B(  3-C ,  4-C ) :   1.2879 B(  3-C ,  7-C ) :   0.1114 B(  3-C ,  8-C ) :   1.4385
B(  4-C ,  5-C ) :   1.2211 B(  4-C ,  6-C ) :   0.1195 B(  4-C , 11-C ) :   1.2990
B(  5-C ,  6-C ) :   1.4992 B(  5-C ,  9-H ) :   0.9689 B(  6-C ,  7-C ) :   1.3458
B(  6-C ,  8-C ) :   0.1092 B(  6-C , 34-C ) :   0.1055 B(  7-C ,  8-C ) :   1.4157
B(  7-C , 22-C ) :   0.9646 B(  8-C , 10-H ) :   0.9710 B( 11-C , 12-H ) :   0.9827
B( 11-C , 13-C ) :   1.0005 B( 13-C , 14-H ) :   0.9548 B( 13-C , 15-H ) :   0.9548
B( 13-C , 16-C ) :   0.9824 B( 16-C , 17-H ) :   0.9719 B( 16-C , 18-H ) :   0.9719
B( 16-C , 19-C ) :   0.9622 B( 19-C , 20-H ) :   0.9727 B( 19-C , 21-H ) :   0.9727
B( 19-C , 35-H ) :   0.9670 B( 22-C , 23-H ) :   0.9543 B( 22-C , 24-H ) :   0.9547
B( 22-C , 25-C ) :   1.0254 B( 25-C , 26-H ) :   0.9606 B( 25-C , 27-H ) :   0.9607
B( 25-C , 28-C ) :   0.9883 B( 28-C , 29-H ) :   0.9710 B( 28-C , 30-H ) :   0.9710
B( 28-C , 31-C ) :   0.9549 B( 31-C , 32-H ) :   0.9730 B( 31-C , 33-H ) :   0.9730
B( 31-C , 36-H ) :   0.9668 B( 34-C , 37-C ) :   0.9592 B( 37-C , 38-C ) :   1.3827
B( 37-C , 39-C ) :   0.1082 B( 37-C , 41-C ) :   0.1066 B( 37-C , 42-C ) :   1.3755
B( 38-C , 39-C ) :   1.4960 B( 38-C , 45-H ) :   0.9770 B( 39-C , 40-C ) :   1.3674
B( 39-C , 47-H ) :   0.9743 B( 40-C , 41-C ) :   1.3713 B( 40-C , 61-C ) :   0.9151
B( 41-C , 42-C ) :   1.4978 B( 41-C , 44-H ) :   0.9753 B( 42-C , 46-H ) :   0.9761
B( 43-H , 62-C ) :   0.9816 B( 48-C , 49-C ) :   1.3721 B( 48-C , 50-C ) :   0.1061
B( 48-C , 52-C ) :   0.1070 B( 48-C , 53-C ) :   1.3693 B( 49-C , 50-C ) :   1.5001
B( 49-C , 56-H ) :   0.9768 B( 50-C , 51-C ) :   1.3683 B( 50-C , 58-H ) :   0.9751
B( 51-C , 52-C ) :   1.3668 B( 51-C , 59-C ) :   0.9174 B( 52-C , 53-C ) :   1.4987
B( 52-C , 55-H ) :   0.9744 B( 53-C , 57-H ) :   0.9773 B( 54-H , 60-C ) :   0.9818
B( 59-C , 60-C ) :   2.7782 B( 61-C , 62-C ) :   2.7801

FINAL SINGLE POINT ENERGY     -1312.127633222943

DIPOLE MOMENT
-------------
                                X             Y             Z
Electronic contribution:      0.38221      -1.97939       0.00373
Nuclear contribution   :     -0.55927       1.92253      -0.00390
                        -----------------------------------------
Total Dipole Moment    :     -0.17706      -0.05685      -0.00017
                        -----------------------------------------
Magnitude (a.u.)       :      0.18596
Magnitude (Debye)      :      0.47268

Rotational constants in cm-1:     0.005920     0.001229     0.001019
Rotational constants in MHz :   177.478005    36.835670    30.545032

CHEMICAL SHIELDING SUMMARY (ppm)  --  Orbital contribution
----------------------------------------------------------

  Nucleus  Element    Isotropic     Anisotropy
  -------  -------  ------------   ------------
      9       H           24.391         12.266
     10       H           24.512         13.166
     12       H           25.251         11.875
     14       H           29.127          4.571
     15       H           29.126          4.573
     17       H           29.842          6.764
     18       H           29.842          6.767
     20       H           30.707          8.017
     21       H           30.707          8.017
     23       H           28.801          6.094
     24       H           28.802          6.071
     26       H           29.991          4.998
     27       H           29.992          4.990
     29       H           30.086          6.382
     30       H           30.086          6.378
     32       H           30.670          8.017
     33       H           30.670          8.018
     35       H           30.419         10.215
     36       H           30.446         10.394
     43       H           28.554         10.923
     44       H           24.105          7.463
     45       H           24.160          7.916
     46       H           24.133          8.088
     47       H           24.092          7.134
     54       H           28.556         10.883
     55       H           24.109          7.198
     56       H           24.188          7.834
     57       H           24.192          7.822
     58       H           24.115          7.360

                             ****ORCA TERMINATED NORMALLY****
TOTAL RUN TIME: 0 days 4 hours 15 minutes 13 seconds 98 msec
