                         Program Version 5.0.4 -  RELEASE  -
|  1> ! B3LYP cc-pVDZ OPT
|  2> %pal nprocs 16 end
|  3> *XYZFile 0 2 model.xyz
|  4>
|  5>                          ****END OF INPUT****
 Total Charge           Charge          ....    0
 Multiplicity           Mult            ....    2
 Number of Electrons    NEL             ....  233
FINAL SINGLE POINT ENERGY     -1312.049838308860
                    ***********************HURRAY********************

CARTESIAN COORDINATES (ANGSTROEM)
---------------------------------
  C     12.367466   -0.027254   -0.004271
  C     11.143539   -0.069299   -0.003040
  C      5.470131   -0.000662   -0.000815
  C      9.724526   -0.089437   -0.002678
  C      8.990499   -1.335723   -0.006213
  C      7.570641   -1.236827   -0.005284
  C      6.897657   -0.012283   -0.001347
  C      7.634582    1.216940    0.002004
  C      9.026256    1.135002    0.001260
  H      6.974283   -2.149427   -0.007828
  H      9.620187    2.048805    0.003763
  C      9.646544   -2.584699   -0.010513
  H     10.739691   -2.574825   -0.011224
  C      8.960010   -3.917865   -0.014285
  H      8.287727   -4.000766    0.864628
  H      8.285669   -3.994755   -0.892161
  C      9.931394   -5.105586   -0.019539
  H     10.590733   -5.027211   -0.903247
  H     10.593189   -5.033054    0.862831
  C      9.222319   -6.461124   -0.023062
  H      8.577847   -6.574132   -0.911994
  H      8.580458   -6.580123    0.866977
  C      6.889022    2.534941    0.006282
  H      6.210012    2.549779   -0.866924
  H      6.212620    2.545607    0.881592
  C      7.734368    3.811262    0.008082
  H      8.398869    3.820544    0.891619
  H      8.396779    3.824334   -0.876981
  C      6.878874    5.084153    0.011857
  H      6.211424    5.076210   -0.869877
  H      6.213550    5.072435    0.895157
  C      7.710870    6.368993    0.013614
  H      8.360868    6.426451   -0.876552
  H      8.363212    6.422506    0.902310
  C      4.247600    0.004800    0.000267
  H      9.944286   -7.293461   -0.026932
  H      7.069825    7.265432    0.016449
  C      2.821974    0.006564    0.000675
  C      2.097717   -1.206649   -0.001354
  C      0.707606   -1.204525   -0.001048
  C     -0.010713    0.010051    0.001310
  C      0.710586    1.222936    0.003369
  C      2.100604    1.221532    0.003068
  H     -3.729564    0.015721    0.002046
  H      0.163795    2.167534    0.005200
  H      2.643471   -2.151786   -0.003192
  H      2.648407    2.165507    0.004660
  H      0.158546   -2.147798   -0.002644
  C     13.789690    0.031504   -0.004822
  C     14.565842   -1.150310   -0.007823
  C     15.954243   -1.089616   -0.008291
  C     16.621265    0.154185   -0.005806
  C     15.849032    1.335648   -0.002864
  C     14.460686    1.276220   -0.002390
  H     20.336370    0.317181   -0.006913
  H     16.355741    2.302369   -0.000948
  H     14.061634   -2.118278   -0.009746
  H     13.873587    2.196248   -0.000104
  H     16.542333   -2.009094   -0.010582
  C     18.050447    0.216424   -0.006272
  C     19.264950    0.269530   -0.006594
  C     -1.441514    0.012000    0.001596
  C     -2.657054    0.014002    0.001839

 Multiplicity           Mult            ....    2
 Number of Electrons    NEL             ....  233
 Basis Dimension        Dim             ....  621

ORBITAL ENERGIES
----------------
                 SPIN UP ORBITALS
  NO   OCC          E(Eh)            E(eV)
   0   1.0000     -10.223981      -278.2087
   1   1.0000     -10.222767      -278.1756
   2   1.0000     -10.222226      -278.1609
   3   1.0000     -10.221294      -278.1355
   4   1.0000     -10.217806      -278.0406
   5   1.0000     -10.215757      -277.9849
   6   1.0000     -10.205883      -277.7162
   7   1.0000     -10.204396      -277.6757
   8   1.0000     -10.204321      -277.6737
   9   1.0000     -10.203746      -277.6580
  10   1.0000     -10.203636      -277.6551
  11   1.0000     -10.202857      -277.6338
  12   1.0000     -10.202689      -277.6293
  13   1.0000     -10.202352      -277.6201
  14   1.0000     -10.202159      -277.6149
  15   1.0000     -10.201905      -277.6079
  16   1.0000     -10.198358      -277.5114
  17   1.0000     -10.196024      -277.4479
  18   1.0000     -10.195769      -277.4410
  19   1.0000     -10.195203      -277.4256
  20   1.0000     -10.194367      -277.4028
  21   1.0000     -10.193966      -277.3919
  22   1.0000     -10.193329      -277.3746
  23   1.0000     -10.193038      -277.3667
  24   1.0000     -10.191917      -277.3362
  25   1.0000     -10.191161      -277.3156
  26   1.0000     -10.190795      -277.3056
  27   1.0000     -10.190022      -277.2846
  28   1.0000     -10.189534      -277.2713
  29   1.0000     -10.186607      -277.1917
  30   1.0000     -10.184415      -277.1320
  31   1.0000     -10.184131      -277.1243
  32   1.0000     -10.179248      -276.9914
  33   1.0000     -10.177526      -276.9446
  34   1.0000      -0.877872       -23.8881
  35   1.0000      -0.875371       -23.8201
  36   1.0000      -0.873906       -23.7802
  37   1.0000      -0.824139       -22.4260
  38   1.0000      -0.809063       -22.0157
  39   1.0000      -0.806186       -21.9374
  40   1.0000      -0.798927       -21.7399
  41   1.0000      -0.793148       -21.5827
  42   1.0000      -0.770997       -20.9799
  43   1.0000      -0.759743       -20.6737
  44   1.0000      -0.758707       -20.6455
  45   1.0000      -0.758408       -20.6373
  46   1.0000      -0.746278       -20.3073
  47   1.0000      -0.736969       -20.0540
  48   1.0000      -0.725980       -19.7549
  49   1.0000      -0.712947       -19.4003
  50   1.0000      -0.700414       -19.0592
  51   1.0000      -0.660759       -17.9802
  52   1.0000      -0.658106       -17.9080
  53   1.0000      -0.642360       -17.4795
  54   1.0000      -0.623386       -16.9632
  55   1.0000      -0.619282       -16.8515
  56   1.0000      -0.618616       -16.8334
  57   1.0000      -0.617699       -16.8085
  58   1.0000      -0.594912       -16.1884
  59   1.0000      -0.582812       -15.8591
  60   1.0000      -0.564750       -15.3676
  61   1.0000      -0.553276       -15.0554
  62   1.0000      -0.551994       -15.0205
  63   1.0000      -0.542804       -14.7704
  64   1.0000      -0.534287       -14.5387
  65   1.0000      -0.510460       -13.8903
  66   1.0000      -0.507325       -13.8050
  67   1.0000      -0.496984       -13.5236
  68   1.0000      -0.492472       -13.4008
  69   1.0000      -0.482313       -13.1244
  70   1.0000      -0.473374       -12.8812
  71   1.0000      -0.473257       -12.8780
  72   1.0000      -0.471564       -12.8319
  73   1.0000      -0.464988       -12.6530
  74   1.0000      -0.445695       -12.1280
  75   1.0000      -0.444095       -12.0844
  76   1.0000      -0.436317       -11.8728
  77   1.0000      -0.432682       -11.7739
  78   1.0000      -0.431229       -11.7344
  79   1.0000      -0.429804       -11.6956
  80   1.0000      -0.428847       -11.6695
  81   1.0000      -0.424744       -11.5579
  82   1.0000      -0.414374       -11.2757
  83   1.0000      -0.401923       -10.9369
  84   1.0000      -0.401790       -10.9333
  85   1.0000      -0.394781       -10.7425
  86   1.0000      -0.393823       -10.7165
  87   1.0000      -0.386322       -10.5124
  88   1.0000      -0.385297       -10.4845
  89   1.0000      -0.382118       -10.3980
  90   1.0000      -0.381594       -10.3837
  91   1.0000      -0.368061       -10.0154
  92   1.0000      -0.361238        -9.8298
  93   1.0000      -0.360265        -9.8033
  94   1.0000      -0.359129        -9.7724
  95   1.0000      -0.358220        -9.7477
  96   1.0000      -0.345092        -9.3904
  97   1.0000      -0.343143        -9.3374
  98   1.0000      -0.336096        -9.1456
  99   1.0000      -0.335348        -9.1253
 100   1.0000      -0.331372        -9.0171
 101   1.0000      -0.330318        -8.9884
 102   1.0000      -0.326957        -8.8970
 103   1.0000      -0.325721        -8.8633
 104   1.0000      -0.312144        -8.4939
 105   1.0000      -0.285679        -7.7737
 106   1.0000      -0.280187        -7.6243
 107   1.0000      -0.278869        -7.5884
 108   1.0000      -0.275159        -7.4874
 109   1.0000      -0.273475        -7.4416
 110   1.0000      -0.271742        -7.3945
 111   1.0000      -0.266807        -7.2602
 112   1.0000      -0.265998        -7.2382
 113   1.0000      -0.260244        -7.0816
 114   1.0000      -0.230415        -6.2699
 115   1.0000      -0.209817        -5.7094
 116   1.0000      -0.173947        -4.7333
 117   0.0000      -0.076353        -2.0777
 118   0.0000      -0.049449        -1.3456
 119   0.0000      -0.016666        -0.4535
 120   0.0000      -0.015502        -0.4218
 121   0.0000      -0.014438        -0.3929

                 SPIN DOWN ORBITALS
  NO   OCC          E(Eh)            E(eV)
   0   1.0000     -10.223799      -278.2037
   1   1.0000     -10.222951      -278.1807
   2   1.0000     -10.222622      -278.1717
   3   1.0000     -10.220836      -278.1231
   4   1.0000     -10.217361      -278.0285
   5   1.0000     -10.214454      -277.9494
   6   1.0000     -10.204372      -277.6751
   7   1.0000     -10.204356      -277.6746
   8   1.0000     -10.204288      -277.6728
   9   1.0000     -10.203848      -277.6608
  10   1.0000     -10.203748      -277.6581
  11   1.0000     -10.202919      -277.6355
  12   1.0000     -10.202803      -277.6324
  13   1.0000     -10.202512      -277.6245
  14   1.0000     -10.202105      -277.6134
  15   1.0000     -10.201861      -277.6068
  16   1.0000     -10.195717      -277.4396
  17   1.0000     -10.195242      -277.4266
  18   1.0000     -10.195208      -277.4257
  19   1.0000     -10.194904      -277.4175
  20   1.0000     -10.194497      -277.4064
  21   1.0000     -10.194046      -277.3941
  22   1.0000     -10.193197      -277.3710
  23   1.0000     -10.191830      -277.3338
  24   1.0000     -10.191407      -277.3223
  25   1.0000     -10.190888      -277.3082
  26   1.0000     -10.190223      -277.2901
  27   1.0000     -10.189299      -277.2649
  28   1.0000     -10.186569      -277.1906
  29   1.0000     -10.186191      -277.1804
  30   1.0000     -10.184412      -277.1319
  31   1.0000     -10.184131      -277.1243
  32   1.0000     -10.179256      -276.9916
  33   1.0000     -10.177527      -276.9446
  34   1.0000      -0.876370       -23.8472
  35   1.0000      -0.874540       -23.7974
  36   1.0000      -0.872650       -23.7460
  37   1.0000      -0.819815       -22.3083
  38   1.0000      -0.807819       -21.9819
  39   1.0000      -0.805410       -21.9163
  40   1.0000      -0.796938       -21.6858
  41   1.0000      -0.792097       -21.5540
  42   1.0000      -0.768999       -20.9255
  43   1.0000      -0.759878       -20.6773
  44   1.0000      -0.758276       -20.6337
  45   1.0000      -0.758075       -20.6283
  46   1.0000      -0.745738       -20.2926
  47   1.0000      -0.733777       -19.9671
  48   1.0000      -0.724783       -19.7223
  49   1.0000      -0.711972       -19.3737
  50   1.0000      -0.698224       -18.9996
  51   1.0000      -0.659254       -17.9392
  52   1.0000      -0.655658       -17.8414
  53   1.0000      -0.642091       -17.4722
  54   1.0000      -0.622099       -16.9282
  55   1.0000      -0.619368       -16.8539
  56   1.0000      -0.617556       -16.8046
  57   1.0000      -0.613457       -16.6930
  58   1.0000      -0.594011       -16.1639
  59   1.0000      -0.581247       -15.8165
  60   1.0000      -0.562039       -15.2938
  61   1.0000      -0.553361       -15.0577
  62   1.0000      -0.551741       -15.0136
  63   1.0000      -0.542195       -14.7539
  64   1.0000      -0.533421       -14.5151
  65   1.0000      -0.507643       -13.8137
  66   1.0000      -0.506269       -13.7763
  67   1.0000      -0.496638       -13.5142
  68   1.0000      -0.491696       -13.3797
  69   1.0000      -0.480947       -13.0872
  70   1.0000      -0.473272       -12.8784
  71   1.0000      -0.472514       -12.8578
  72   1.0000      -0.471334       -12.8256
  73   1.0000      -0.461534       -12.5590
  74   1.0000      -0.445663       -12.1271
  75   1.0000      -0.443891       -12.0789
  76   1.0000      -0.434270       -11.8171
  77   1.0000      -0.431343       -11.7374
  78   1.0000      -0.431246       -11.7348
  79   1.0000      -0.429695       -11.6926
  80   1.0000      -0.427650       -11.6370
  81   1.0000      -0.422140       -11.4870
  82   1.0000      -0.413895       -11.2627
  83   1.0000      -0.400898       -10.9090
  84   1.0000      -0.396356       -10.7854
  85   1.0000      -0.394269       -10.7286
  86   1.0000      -0.391114       -10.6427
  87   1.0000      -0.386427       -10.5152
  88   1.0000      -0.384886       -10.4733
  89   1.0000      -0.379385       -10.3236
  90   1.0000      -0.378640       -10.3033
  91   1.0000      -0.366939        -9.9849
  92   1.0000      -0.361170        -9.8279
  93   1.0000      -0.359809        -9.7909
  94   1.0000      -0.358570        -9.7572
  95   1.0000      -0.355209        -9.6657
  96   1.0000      -0.344671        -9.3790
  97   1.0000      -0.340917        -9.2768
  98   1.0000      -0.334850        -9.1117
  99   1.0000      -0.333992        -9.0884
 100   1.0000      -0.329979        -8.9792
 101   1.0000      -0.329832        -8.9752
 102   1.0000      -0.326206        -8.8765
 103   1.0000      -0.325371        -8.8538
 104   1.0000      -0.310069        -8.4374
 105   1.0000      -0.282409        -7.6848
 106   1.0000      -0.280222        -7.6252
 107   1.0000      -0.278763        -7.5855
 108   1.0000      -0.273334        -7.4378
 109   1.0000      -0.271330        -7.3833
 110   1.0000      -0.267195        -7.2707
 111   1.0000      -0.265049        -7.2123
 112   1.0000      -0.262343        -7.1387
 113   1.0000      -0.257656        -7.0112
 114   1.0000      -0.229008        -6.2316
 115   1.0000      -0.203059        -5.5255
 116   0.0000      -0.091507        -2.4900
 117   0.0000      -0.067707        -1.8424
 118   0.0000      -0.047481        -1.2920
 119   0.0000      -0.016995        -0.4625
 120   0.0000      -0.014709        -0.4002

MULLIKEN ATOMIC CHARGES AND SPIN POPULATIONS
--------------------------------------------
   0 C :    0.184481    0.100531
   1 C :    0.250620   -0.067735
   2 C :    0.239667    0.032855
   3 C :   -0.189189    0.222289
   4 C :    0.071205   -0.168756
   5 C :   -0.026687    0.221525
   6 C :   -0.153039   -0.106544
   7 C :   -0.086380    0.231718
   8 C :    0.009752   -0.117632
   9 H :   -0.052809   -0.009226
  10 H :   -0.054219    0.004278
  11 C :   -0.098923    0.693479
  12 H :   -0.026186   -0.030181
  13 C :    0.034145   -0.047536
  14 H :    0.029778    0.031127
  15 H :    0.029800    0.031096
  16 C :   -0.039175    0.002245
  17 H :    0.012682    0.000457
  18 H :    0.012680    0.000454
  19 C :    0.006643   -0.000174
  20 H :    0.017811    0.000151
  21 H :    0.017822    0.000151
  22 C :    0.039003   -0.018466
  23 H :    0.032267    0.009867
  24 H :    0.032283    0.009896
  25 C :   -0.034029    0.000858
  26 H :    0.017006    0.000168
  27 H :    0.016958    0.000170
  28 C :   -0.024822    0.000026
  29 H :    0.005642    0.000052
  30 H :    0.005647    0.000051
  31 C :    0.004014   -0.000080
  32 H :    0.017415    0.000023
  33 H :    0.017403    0.000023
  34 C :    0.170368   -0.048182
  35 H :    0.014048   -0.000199
  36 H :    0.013162   -0.000005
  37 C :   -0.243562    0.012099
  38 C :    0.036503   -0.011550
  39 C :    0.047915    0.006641
  40 C :   -0.101510   -0.012126
  41 C :    0.047566    0.006633
  42 C :    0.034613   -0.011523
  43 H :   -0.025712    0.000295
  44 H :   -0.032253   -0.000269
  45 H :   -0.035810    0.000496
  46 H :   -0.034749    0.000472
  47 H :   -0.032103   -0.000269
  48 C :   -0.247355   -0.026134
  49 C :    0.031103    0.027334
  50 C :    0.047414   -0.015752
  51 C :   -0.101927    0.030018
  52 C :    0.048084   -0.015748
  53 C :    0.036577    0.027431
  54 H :   -0.026315   -0.000743
  55 H :   -0.032736    0.000630
  56 H :   -0.034695   -0.001134
  57 H :   -0.036583   -0.001192
  58 H :   -0.033151    0.000630
  59 C :    0.648053   -0.010274
  60 C :   -0.562617    0.018458
  61 C :    0.648175    0.004164
  62 C :   -0.561767   -0.007364
Sum of atomic charges         :    0.0000000

LOEWDIN ATOMIC CHARGES AND SPIN POPULATIONS
-------------------------------------------
   0 C :   -0.023591    0.072963
   1 C :   -0.012654   -0.030911
   2 C :   -0.011234    0.017576
   3 C :   -0.039280    0.159073
   4 C :   -0.039432   -0.071904
   5 C :    0.011275    0.167182
   6 C :   -0.052622   -0.059029
   7 C :   -0.004670    0.170924
   8 C :   -0.007216   -0.064253
   9 H :    0.028634    0.000875
  10 H :    0.030020   -0.000447
  11 C :    0.014073    0.568882
  12 H :    0.021483    0.003337
  13 C :   -0.054394    0.005391
  14 H :    0.034761    0.024289
  15 H :    0.034755    0.024262
  16 C :   -0.045982    0.001141
  17 H :    0.025708    0.000290
  18 H :    0.025702    0.000289
  19 C :   -0.067352   -0.000043
  20 H :    0.025762    0.000243
  21 H :    0.025762    0.000244
  22 C :   -0.035536    0.002135
  23 H :    0.038975    0.007761
  24 H :    0.038997    0.007783
  25 C :   -0.043371    0.000152
  26 H :    0.024674    0.000053
  27 H :    0.024679    0.000054
  28 C :   -0.047139    0.000017
  29 H :    0.023946    0.000088
  30 H :    0.023947    0.000088
  31 C :   -0.067300   -0.000038
  32 H :    0.025380    0.000016
  33 H :    0.025376    0.000016
  34 C :   -0.023704   -0.034182
  35 H :    0.028647   -0.000110
  36 H :    0.027759   -0.000007
  37 C :   -0.049227    0.005789
  38 C :    0.000592   -0.008768
  39 C :    0.001479    0.004103
  40 C :   -0.051941   -0.008817
  41 C :    0.001359    0.004097
  42 C :   -0.000333   -0.008754
  43 H :    0.023997   -0.000010
  44 H :    0.034100    0.000014
  45 H :    0.032930   -0.000010
  46 H :    0.032878   -0.000015
  47 H :    0.034164    0.000013
  48 C :   -0.049234   -0.012404
  49 C :   -0.001330    0.020817
  50 C :    0.000957   -0.009647
  51 C :   -0.052909    0.021883
  52 C :    0.001101   -0.009631
  53 C :    0.000049    0.020888
  54 H :    0.023704    0.000028
  55 H :    0.033946   -0.000038
  56 H :    0.032257    0.000023
  57 H :    0.032640    0.000020
  58 H :    0.033882   -0.000039
  59 C :   -0.007001   -0.004394
  60 C :   -0.043633    0.014726
  61 C :   -0.006927    0.001807
  62 C :   -0.042341   -0.005878

  Mayer bond orders larger than 0.100000
B(  0-C ,  1-C ) :   1.6750 B(  0-C ,  3-C ) :  -0.1100 B(  0-C , 48-C ) :   0.9097
B(  1-C ,  3-C ) :   0.8814 B(  1-C , 48-C ) :  -0.1789 B(  2-C ,  6-C ) :   0.8809
B(  2-C , 34-C ) :   1.7187 B(  2-C , 37-C ) :  -0.1721 B(  3-C ,  4-C ) :   1.2771
B(  3-C ,  8-C ) :   1.3961 B(  3-C , 48-C ) :   0.1085 B(  4-C ,  5-C ) :   1.2902
B(  4-C , 11-C ) :   1.3831 B(  5-C ,  6-C ) :   1.4481 B(  5-C ,  9-H ) :   0.9178
B(  6-C ,  7-C ) :   1.3416 B(  6-C , 34-C ) :  -0.1079 B(  6-C , 37-C ) :   0.1003
B(  7-C ,  8-C ) :   1.4308 B(  7-C , 22-C ) :   1.0956 B(  8-C , 10-H ) :   0.9201
B( 11-C , 12-H ) :   0.8985 B( 11-C , 13-C ) :   1.0843 B( 13-C , 14-H ) :   0.9113
B( 13-C , 15-H ) :   0.9113 B( 13-C , 16-C ) :   1.0713 B( 16-C , 17-H ) :   0.9437
B( 16-C , 18-H ) :   0.9437 B( 16-C , 19-C ) :   1.1067 B( 19-C , 20-H ) :   0.9653
B( 19-C , 21-H ) :   0.9653 B( 19-C , 35-H ) :   0.9608 B( 22-C , 23-H ) :   0.8956
B( 22-C , 24-H ) :   0.8957 B( 22-C , 25-C ) :   1.1046 B( 25-C , 26-H ) :   0.9292
B( 25-C , 27-H ) :   0.9292 B( 25-C , 28-C ) :   1.0746 B( 28-C , 29-H ) :   0.9410
B( 28-C , 30-H ) :   0.9410 B( 28-C , 31-C ) :   1.1063 B( 31-C , 32-H ) :   0.9662
B( 31-C , 33-H ) :   0.9662 B( 31-C , 36-H ) :   0.9616 B( 34-C , 37-C ) :   0.9061
B( 37-C , 38-C ) :   1.4254 B( 37-C , 42-C ) :   1.4210 B( 38-C , 39-C ) :   1.4706
B( 38-C , 45-H ) :   0.9384 B( 39-C , 40-C ) :   1.4100 B( 39-C , 47-H ) :   0.9381
B( 40-C , 41-C ) :   1.4098 B( 40-C , 61-C ) :   0.9042 B( 41-C , 42-C ) :   1.4708
B( 41-C , 44-H ) :   0.9381 B( 42-C , 46-H ) :   0.9387 B( 43-H , 62-C ) :   1.1126
B( 48-C , 49-C ) :   1.4185 B( 48-C , 53-C ) :   1.4203 B( 49-C , 50-C ) :   1.4728
B( 49-C , 56-H ) :   0.9388 B( 50-C , 51-C ) :   1.4074 B( 50-C , 58-H ) :   0.9380
B( 51-C , 52-C ) :   1.4079 B( 51-C , 59-C ) :   0.9053 B( 52-C , 53-C ) :   1.4736
B( 52-C , 55-H ) :   0.9379 B( 53-C , 57-H ) :   0.9381 B( 54-H , 60-C ) :   1.1126
B( 59-C , 60-C ) :   2.1515 B( 61-C , 62-C ) :   2.1522

FINAL SINGLE POINT ENERGY     -1312.049838155028

DIPOLE MOMENT
-------------
                                X             Y             Z
Electronic contribution:      0.39454      -1.96426       0.00829
Nuclear contribution   :     -0.55902       1.91830      -0.00854
                        -----------------------------------------
Total Dipole Moment    :     -0.16448      -0.04597      -0.00025
                        -----------------------------------------
Magnitude (a.u.)       :      0.17079
Magnitude (Debye)      :      0.43410

Rotational constants in cm-1:     0.005920     0.001229     0.001019
Rotational constants in MHz :   177.462640    36.836715    30.545296

                             ****ORCA TERMINATED NORMALLY****
TOTAL RUN TIME: 0 days 0 hours 6 minutes 28 seconds 71 msec
