                         Program Version 5.0.4 -  RELEASE  -
|  1> ! B3LYP cc-pVDZ OPT
|  2> %pal nprocs 16 end
|  3> *XYZFile 0 2 model.xyz
|  4>
|  5>                          ****END OF INPUT****
 Total Charge           Charge          ....    0
 Multiplicity           Mult            ....    2
 Number of Electrons    NEL             ....  233
FINAL SINGLE POINT ENERGY     -1312.049834587132
FINAL SINGLE POINT ENERGY     -1312.049838349985
                    ***********************HURRAY********************

CARTESIAN COORDINATES (ANGSTROEM)
---------------------------------
  C     12.367468   -0.026690   -0.004521
  C     11.143536   -0.068421   -0.003249
  C      5.470105   -0.000456   -0.000953
  C      9.724522   -0.088645   -0.002867
  C      8.990628   -1.335024   -0.006403
  C      7.570759   -1.236349   -0.005487
  C      6.897637   -0.011889   -0.001450
  C      7.634424    1.217416    0.002056
  C      9.026112    1.135702    0.001259
  H      6.974675   -2.149130   -0.008114
  H      9.619812    2.049654    0.003881
  C      9.646865   -2.583921   -0.010645
  H     10.739981   -2.573932   -0.011197
  C      8.960510   -3.917165   -0.014594
  H      8.287887   -4.000132    0.864048
  H      8.286468   -3.994223   -0.892681
  C      9.932017   -5.104805   -0.019413
  H     10.591664   -5.026394   -0.902868
  H     10.593459   -5.032110    0.863189
  C      9.223189   -6.460465   -0.023106
  H      8.579052   -6.573687   -0.912248
  H      8.580972   -6.579530    0.866660
  C      6.888617    2.535280    0.006628
  H      6.209492    2.550134   -0.866458
  H      6.212355    2.545704    0.882021
  C      7.733771    3.811741    0.008515
  H      8.398339    3.820953    0.891977
  H      8.396097    3.824967   -0.876584
  C      6.878227    5.084572    0.012531
  H      6.210709    5.076758   -0.869130
  H      6.212980    5.072748    0.895865
  C      7.710095    6.369491    0.014397
  H      8.360072    6.427193   -0.875761
  H      8.362497    6.423053    0.903036
  C      4.247577    0.004948    0.000113
  H      9.945336   -7.292652   -0.026626
  H      7.068970    7.265890    0.017359
  C      2.821946    0.006500    0.000494
  C      2.097893   -1.206838   -0.000235
  C      0.707780   -1.204952    0.000050
  C     -0.010741    0.009504    0.001091
  C      0.710352    1.222515    0.001864
  C      2.100373    1.221345    0.001582
  H     -3.729592    0.014614    0.001756
  H      0.163384    2.167010    0.002651
  H      2.643820   -2.151876   -0.001021
  H      2.647986    2.165427    0.002150
  H      0.158864   -2.148310   -0.000515
  C     13.789722    0.031477   -0.005118
  C     14.565302   -1.150711   -0.007168
  C     15.953740   -1.090712   -0.007603
  C     16.621353    0.152770   -0.006014
  C     15.849687    1.334610   -0.003972
  C     14.461312    1.275873   -0.003524
  H     20.336530    0.314151   -0.006977
  H     16.356949    2.301040   -0.002743
  H     14.060641   -2.118439   -0.008361
  H     13.874663    2.196192   -0.001939
  H     16.541337   -2.010509   -0.009127
  C     18.050568    0.214344   -0.006425
  C     19.265095    0.266906   -0.006700
  C     -1.441545    0.011220    0.001350
  C     -2.657087    0.013045    0.001570

 Multiplicity           Mult            ....    2
 Number of Electrons    NEL             ....  233
 Basis Dimension        Dim             ....  621

ORBITAL ENERGIES
----------------
                 SPIN UP ORBITALS
  NO   OCC          E(Eh)            E(eV)
   0   1.0000     -10.223982      -278.2087
   1   1.0000     -10.222766      -278.1756
   2   1.0000     -10.222227      -278.1609
   3   1.0000     -10.221294      -278.1355
   4   1.0000     -10.217807      -278.0407
   5   1.0000     -10.215758      -277.9849
   6   1.0000     -10.205883      -277.7162
   7   1.0000     -10.204396      -277.6757
   8   1.0000     -10.204321      -277.6737
   9   1.0000     -10.203746      -277.6580
  10   1.0000     -10.203637      -277.6551
  11   1.0000     -10.202857      -277.6339
  12   1.0000     -10.202690      -277.6293
  13   1.0000     -10.202352      -277.6201
  14   1.0000     -10.202161      -277.6149
  15   1.0000     -10.201906      -277.6080
  16   1.0000     -10.198359      -277.5115
  17   1.0000     -10.196022      -277.4479
  18   1.0000     -10.195770      -277.4410
  19   1.0000     -10.195202      -277.4256
  20   1.0000     -10.194367      -277.4028
  21   1.0000     -10.193965      -277.3919
  22   1.0000     -10.193331      -277.3746
  23   1.0000     -10.193038      -277.3667
  24   1.0000     -10.191915      -277.3361
  25   1.0000     -10.191160      -277.3156
  26   1.0000     -10.190795      -277.3056
  27   1.0000     -10.190016      -277.2844
  28   1.0000     -10.189535      -277.2713
  29   1.0000     -10.186606      -277.1916
  30   1.0000     -10.184410      -277.1319
  31   1.0000     -10.184128      -277.1242
  32   1.0000     -10.179249      -276.9914
  33   1.0000     -10.177524      -276.9445
  34   1.0000      -0.877873       -23.8881
  35   1.0000      -0.875371       -23.8200
  36   1.0000      -0.873906       -23.7802
  37   1.0000      -0.824139       -22.4260
  38   1.0000      -0.809063       -22.0157
  39   1.0000      -0.806185       -21.9374
  40   1.0000      -0.798926       -21.7399
  41   1.0000      -0.793148       -21.5827
  42   1.0000      -0.770997       -20.9799
  43   1.0000      -0.759743       -20.6736
  44   1.0000      -0.758707       -20.6455
  45   1.0000      -0.758409       -20.6374
  46   1.0000      -0.746278       -20.3073
  47   1.0000      -0.736970       -20.0540
  48   1.0000      -0.725981       -19.7550
  49   1.0000      -0.712949       -19.4003
  50   1.0000      -0.700415       -19.0593
  51   1.0000      -0.660759       -17.9802
  52   1.0000      -0.658108       -17.9080
  53   1.0000      -0.642360       -17.4795
  54   1.0000      -0.623388       -16.9632
  55   1.0000      -0.619283       -16.8515
  56   1.0000      -0.618620       -16.8335
  57   1.0000      -0.617701       -16.8085
  58   1.0000      -0.594914       -16.1884
  59   1.0000      -0.582816       -15.8592
  60   1.0000      -0.564750       -15.3676
  61   1.0000      -0.553276       -15.0554
  62   1.0000      -0.551994       -15.0205
  63   1.0000      -0.542803       -14.7704
  64   1.0000      -0.534288       -14.5387
  65   1.0000      -0.510466       -13.8905
  66   1.0000      -0.507325       -13.8050
  67   1.0000      -0.496984       -13.5236
  68   1.0000      -0.492470       -13.4008
  69   1.0000      -0.482316       -13.1245
  70   1.0000      -0.473374       -12.8811
  71   1.0000      -0.473257       -12.8780
  72   1.0000      -0.471564       -12.8319
  73   1.0000      -0.464985       -12.6529
  74   1.0000      -0.445696       -12.1280
  75   1.0000      -0.444096       -12.0845
  76   1.0000      -0.436317       -11.8728
  77   1.0000      -0.432687       -11.7740
  78   1.0000      -0.431230       -11.7344
  79   1.0000      -0.429805       -11.6956
  80   1.0000      -0.428847       -11.6695
  81   1.0000      -0.424744       -11.5579
  82   1.0000      -0.414376       -11.2757
  83   1.0000      -0.401925       -10.9369
  84   1.0000      -0.401788       -10.9332
  85   1.0000      -0.394781       -10.7425
  86   1.0000      -0.393822       -10.7164
  87   1.0000      -0.386322       -10.5124
  88   1.0000      -0.385297       -10.4845
  89   1.0000      -0.382117       -10.3979
  90   1.0000      -0.381601       -10.3839
  91   1.0000      -0.368065       -10.0156
  92   1.0000      -0.361239        -9.8298
  93   1.0000      -0.360267        -9.8034
  94   1.0000      -0.359130        -9.7724
  95   1.0000      -0.358221        -9.7477
  96   1.0000      -0.345092        -9.3904
  97   1.0000      -0.343147        -9.3375
  98   1.0000      -0.336096        -9.1456
  99   1.0000      -0.335346        -9.1252
 100   1.0000      -0.331371        -9.0171
 101   1.0000      -0.330316        -8.9883
 102   1.0000      -0.326961        -8.8971
 103   1.0000      -0.325718        -8.8632
 104   1.0000      -0.312144        -8.4939
 105   1.0000      -0.285678        -7.7737
 106   1.0000      -0.280187        -7.6243
 107   1.0000      -0.278869        -7.5884
 108   1.0000      -0.275159        -7.4875
 109   1.0000      -0.273475        -7.4416
 110   1.0000      -0.271743        -7.3945
 111   1.0000      -0.266806        -7.2602
 112   1.0000      -0.265998        -7.2382
 113   1.0000      -0.260245        -7.0816
 114   1.0000      -0.230415        -6.2699
 115   1.0000      -0.209818        -5.7094
 116   1.0000      -0.173948        -4.7334
 117   0.0000      -0.076353        -2.0777
 118   0.0000      -0.049449        -1.3456
 119   0.0000      -0.016666        -0.4535
 120   0.0000      -0.015503        -0.4219
 121   0.0000      -0.014439        -0.3929

                 SPIN DOWN ORBITALS
  NO   OCC          E(Eh)            E(eV)
   0   1.0000     -10.223799      -278.2037
   1   1.0000     -10.222951      -278.1806
   2   1.0000     -10.222624      -278.1717
   3   1.0000     -10.220836      -278.1231
   4   1.0000     -10.217362      -278.0286
   5   1.0000     -10.214456      -277.9495
   6   1.0000     -10.204372      -277.6751
   7   1.0000     -10.204357      -277.6747
   8   1.0000     -10.204288      -277.6728
   9   1.0000     -10.203849      -277.6608
  10   1.0000     -10.203748      -277.6581
  11   1.0000     -10.202920      -277.6356
  12   1.0000     -10.202804      -277.6324
  13   1.0000     -10.202511      -277.6244
  14   1.0000     -10.202105      -277.6134
  15   1.0000     -10.201863      -277.6068
  16   1.0000     -10.195717      -277.4396
  17   1.0000     -10.195243      -277.4267
  18   1.0000     -10.195208      -277.4257
  19   1.0000     -10.194906      -277.4175
  20   1.0000     -10.194497      -277.4064
  21   1.0000     -10.194044      -277.3940
  22   1.0000     -10.193197      -277.3710
  23   1.0000     -10.191829      -277.3338
  24   1.0000     -10.191406      -277.3223
  25   1.0000     -10.190889      -277.3082
  26   1.0000     -10.190217      -277.2899
  27   1.0000     -10.189300      -277.2649
  28   1.0000     -10.186568      -277.1906
  29   1.0000     -10.186190      -277.1803
  30   1.0000     -10.184406      -277.1318
  31   1.0000     -10.184128      -277.1242
  32   1.0000     -10.179256      -276.9916
  33   1.0000     -10.177525      -276.9445
  34   1.0000      -0.876370       -23.8472
  35   1.0000      -0.874540       -23.7974
  36   1.0000      -0.872651       -23.7460
  37   1.0000      -0.819815       -22.3083
  38   1.0000      -0.807819       -21.9819
  39   1.0000      -0.805409       -21.9163
  40   1.0000      -0.796937       -21.6858
  41   1.0000      -0.792097       -21.5540
  42   1.0000      -0.768999       -20.9255
  43   1.0000      -0.759878       -20.6773
  44   1.0000      -0.758276       -20.6337
  45   1.0000      -0.758075       -20.6283
  46   1.0000      -0.745738       -20.2926
  47   1.0000      -0.733777       -19.9671
  48   1.0000      -0.724784       -19.7224
  49   1.0000      -0.711974       -19.3738
  50   1.0000      -0.698226       -18.9997
  51   1.0000      -0.659254       -17.9392
  52   1.0000      -0.655660       -17.8414
  53   1.0000      -0.642091       -17.4722
  54   1.0000      -0.622101       -16.9282
  55   1.0000      -0.619369       -16.8539
  56   1.0000      -0.617557       -16.8046
  57   1.0000      -0.613460       -16.6931
  58   1.0000      -0.594014       -16.1639
  59   1.0000      -0.581251       -15.8166
  60   1.0000      -0.562039       -15.2938
  61   1.0000      -0.553361       -15.0577
  62   1.0000      -0.551741       -15.0136
  63   1.0000      -0.542195       -14.7539
  64   1.0000      -0.533422       -14.5151
  65   1.0000      -0.507647       -13.8138
  66   1.0000      -0.506271       -13.7763
  67   1.0000      -0.496639       -13.5142
  68   1.0000      -0.491694       -13.3797
  69   1.0000      -0.480949       -13.0873
  70   1.0000      -0.473272       -12.8784
  71   1.0000      -0.472514       -12.8578
  72   1.0000      -0.471334       -12.8256
  73   1.0000      -0.461531       -12.5589
  74   1.0000      -0.445663       -12.1271
  75   1.0000      -0.443892       -12.0789
  76   1.0000      -0.434272       -11.8171
  77   1.0000      -0.431345       -11.7375
  78   1.0000      -0.431247       -11.7348
  79   1.0000      -0.429696       -11.6926
  80   1.0000      -0.427650       -11.6369
  81   1.0000      -0.422140       -11.4870
  82   1.0000      -0.413897       -11.2627
  83   1.0000      -0.400899       -10.9090
  84   1.0000      -0.396355       -10.7854
  85   1.0000      -0.394268       -10.7286
  86   1.0000      -0.391112       -10.6427
  87   1.0000      -0.386427       -10.5152
  88   1.0000      -0.384886       -10.4733
  89   1.0000      -0.379391       -10.3238
  90   1.0000      -0.378638       -10.3033
  91   1.0000      -0.366944        -9.9850
  92   1.0000      -0.361171        -9.8280
  93   1.0000      -0.359811        -9.7910
  94   1.0000      -0.358572        -9.7572
  95   1.0000      -0.355210        -9.6658
  96   1.0000      -0.344671        -9.3790
  97   1.0000      -0.340922        -9.2769
  98   1.0000      -0.334848        -9.1117
  99   1.0000      -0.333991        -9.0884
 100   1.0000      -0.329977        -8.9791
 101   1.0000      -0.329831        -8.9751
 102   1.0000      -0.326210        -8.8766
 103   1.0000      -0.325368        -8.8537
 104   1.0000      -0.310069        -8.4374
 105   1.0000      -0.282409        -7.6848
 106   1.0000      -0.280222        -7.6252
 107   1.0000      -0.278763        -7.5855
 108   1.0000      -0.273335        -7.4378
 109   1.0000      -0.271330        -7.3833
 110   1.0000      -0.267195        -7.2707
 111   1.0000      -0.265049        -7.2124
 112   1.0000      -0.262343        -7.1387
 113   1.0000      -0.257656        -7.0112
 114   1.0000      -0.229008        -6.2316
 115   1.0000      -0.203060        -5.5255
 116   0.0000      -0.091506        -2.4900
 117   0.0000      -0.067707        -1.8424
 118   0.0000      -0.047481        -1.2920
 119   0.0000      -0.016996        -0.4625
 120   0.0000      -0.014710        -0.4003

MULLIKEN ATOMIC CHARGES AND SPIN POPULATIONS
--------------------------------------------
   0 C :    0.184506    0.100517
   1 C :    0.250629   -0.067721
   2 C :    0.239672    0.032847
   3 C :   -0.189202    0.222277
   4 C :    0.071106   -0.168758
   5 C :   -0.026651    0.221512
   6 C :   -0.153004   -0.106540
   7 C :   -0.086432    0.231711
   8 C :    0.009809   -0.117622
   9 H :   -0.052803   -0.009225
  10 H :   -0.054215    0.004278
  11 C :   -0.098894    0.693497
  12 H :   -0.026193   -0.030183
  13 C :    0.034120   -0.047540
  14 H :    0.029774    0.031126
  15 H :    0.029795    0.031107
  16 C :   -0.039162    0.002246
  17 H :    0.012680    0.000456
  18 H :    0.012675    0.000455
  19 C :    0.006641   -0.000174
  20 H :    0.017811    0.000151
  21 H :    0.017817    0.000151
  22 C :    0.039029   -0.018464
  23 H :    0.032260    0.009865
  24 H :    0.032281    0.009897
  25 C :   -0.034028    0.000858
  26 H :    0.017005    0.000168
  27 H :    0.016952    0.000171
  28 C :   -0.024783    0.000026
  29 H :    0.005636    0.000052
  30 H :    0.005648    0.000051
  31 C :    0.003990   -0.000080
  32 H :    0.017409    0.000023
  33 H :    0.017399    0.000023
  34 C :    0.170352   -0.048171
  35 H :    0.014053   -0.000199
  36 H :    0.013160   -0.000005
  37 C :   -0.243553    0.012100
  38 C :    0.036494   -0.011551
  39 C :    0.047924    0.006642
  40 C :   -0.101517   -0.012126
  41 C :    0.047559    0.006634
  42 C :    0.034630   -0.011524
  43 H :   -0.025715    0.000296
  44 H :   -0.032253   -0.000269
  45 H :   -0.035811    0.000496
  46 H :   -0.034750    0.000473
  47 H :   -0.032103   -0.000270
  48 C :   -0.247370   -0.026130
  49 C :    0.031082    0.027330
  50 C :    0.047405   -0.015750
  51 C :   -0.101932    0.030013
  52 C :    0.048092   -0.015746
  53 C :    0.036604    0.027427
  54 H :   -0.026318   -0.000743
  55 H :   -0.032736    0.000630
  56 H :   -0.034691   -0.001134
  57 H :   -0.036580   -0.001192
  58 H :   -0.033151    0.000630
  59 C :    0.648050   -0.010271
  60 C :   -0.562612    0.018455
  61 C :    0.648167    0.004163
  62 C :   -0.561758   -0.007364
Sum of atomic charges         :   -0.0000000

LOEWDIN ATOMIC CHARGES AND SPIN POPULATIONS
-------------------------------------------
   0 C :   -0.023591    0.072955
   1 C :   -0.012653   -0.030906
   2 C :   -0.011232    0.017575
   3 C :   -0.039281    0.159067
   4 C :   -0.039419   -0.071908
   5 C :    0.011272    0.167170
   6 C :   -0.052621   -0.059025
   7 C :   -0.004662    0.170920
   8 C :   -0.007221   -0.064247
   9 H :    0.028635    0.000875
  10 H :    0.030021   -0.000447
  11 C :    0.014076    0.568895
  12 H :    0.021476    0.003340
  13 C :   -0.054399    0.005392
  14 H :    0.034756    0.024287
  15 H :    0.034755    0.024270
  16 C :   -0.045980    0.001141
  17 H :    0.025706    0.000290
  18 H :    0.025700    0.000289
  19 C :   -0.067352   -0.000043
  20 H :    0.025761    0.000243
  21 H :    0.025760    0.000244
  22 C :   -0.035528    0.002136
  23 H :    0.038966    0.007759
  24 H :    0.038997    0.007783
  25 C :   -0.043370    0.000152
  26 H :    0.024673    0.000053
  27 H :    0.024677    0.000054
  28 C :   -0.047139    0.000017
  29 H :    0.023945    0.000088
  30 H :    0.023949    0.000088
  31 C :   -0.067302   -0.000038
  32 H :    0.025376    0.000016
  33 H :    0.025374    0.000016
  34 C :   -0.023704   -0.034180
  35 H :    0.028651   -0.000110
  36 H :    0.027764   -0.000007
  37 C :   -0.049227    0.005790
  38 C :    0.000594   -0.008768
  39 C :    0.001479    0.004104
  40 C :   -0.051939   -0.008817
  41 C :    0.001360    0.004099
  42 C :   -0.000334   -0.008755
  43 H :    0.023996   -0.000010
  44 H :    0.034099    0.000014
  45 H :    0.032930   -0.000010
  46 H :    0.032877   -0.000015
  47 H :    0.034164    0.000013
  48 C :   -0.049234   -0.012402
  49 C :   -0.001329    0.020814
  50 C :    0.000956   -0.009645
  51 C :   -0.052908    0.021880
  52 C :    0.001103   -0.009630
  53 C :    0.000046    0.020884
  54 H :    0.023703    0.000028
  55 H :    0.033946   -0.000038
  56 H :    0.032256    0.000022
  57 H :    0.032642    0.000020
  58 H :    0.033882   -0.000039
  59 C :   -0.006999   -0.004394
  60 C :   -0.043634    0.014724
  61 C :   -0.006924    0.001808
  62 C :   -0.042343   -0.005880

  Mayer bond orders larger than 0.100000
B(  0-C ,  1-C ) :   1.6749 B(  0-C ,  3-C ) :  -0.1100 B(  0-C , 48-C ) :   0.9097
B(  1-C ,  3-C ) :   0.8814 B(  1-C , 48-C ) :  -0.1789 B(  2-C ,  6-C ) :   0.8809
B(  2-C , 34-C ) :   1.7187 B(  2-C , 37-C ) :  -0.1721 B(  3-C ,  4-C ) :   1.2771
B(  3-C ,  8-C ) :   1.3960 B(  3-C , 48-C ) :   0.1085 B(  4-C ,  5-C ) :   1.2902
B(  4-C , 11-C ) :   1.3831 B(  5-C ,  6-C ) :   1.4480 B(  5-C ,  9-H ) :   0.9178
B(  6-C ,  7-C ) :   1.3417 B(  6-C , 34-C ) :  -0.1079 B(  6-C , 37-C ) :   0.1003
B(  7-C ,  8-C ) :   1.4309 B(  7-C , 22-C ) :   1.0956 B(  8-C , 10-H ) :   0.9201
B( 11-C , 12-H ) :   0.8985 B( 11-C , 13-C ) :   1.0843 B( 13-C , 14-H ) :   0.9113
B( 13-C , 15-H ) :   0.9113 B( 13-C , 16-C ) :   1.0713 B( 16-C , 17-H ) :   0.9437
B( 16-C , 18-H ) :   0.9437 B( 16-C , 19-C ) :   1.1067 B( 19-C , 20-H ) :   0.9653
B( 19-C , 21-H ) :   0.9653 B( 19-C , 35-H ) :   0.9607 B( 22-C , 23-H ) :   0.8956
B( 22-C , 24-H ) :   0.8957 B( 22-C , 25-C ) :   1.1046 B( 25-C , 26-H ) :   0.9292
B( 25-C , 27-H ) :   0.9292 B( 25-C , 28-C ) :   1.0747 B( 28-C , 29-H ) :   0.9410
B( 28-C , 30-H ) :   0.9410 B( 28-C , 31-C ) :   1.1063 B( 31-C , 32-H ) :   0.9662
B( 31-C , 33-H ) :   0.9662 B( 31-C , 36-H ) :   0.9616 B( 34-C , 37-C ) :   0.9061
B( 37-C , 38-C ) :   1.4254 B( 37-C , 42-C ) :   1.4210 B( 38-C , 39-C ) :   1.4706
B( 38-C , 45-H ) :   0.9384 B( 39-C , 40-C ) :   1.4100 B( 39-C , 47-H ) :   0.9381
B( 40-C , 41-C ) :   1.4098 B( 40-C , 61-C ) :   0.9042 B( 41-C , 42-C ) :   1.4708
B( 41-C , 44-H ) :   0.9381 B( 42-C , 46-H ) :   0.9387 B( 43-H , 62-C ) :   1.1126
B( 48-C , 49-C ) :   1.4185 B( 48-C , 53-C ) :   1.4203 B( 49-C , 50-C ) :   1.4728
B( 49-C , 56-H ) :   0.9388 B( 50-C , 51-C ) :   1.4074 B( 50-C , 58-H ) :   0.9380
B( 51-C , 52-C ) :   1.4079 B( 51-C , 59-C ) :   0.9053 B( 52-C , 53-C ) :   1.4736
B( 52-C , 55-H ) :   0.9379 B( 53-C , 57-H ) :   0.9381 B( 54-H , 60-C ) :   1.1126
B( 59-C , 60-C ) :   2.1515 B( 61-C , 62-C ) :   2.1522

FINAL SINGLE POINT ENERGY     -1312.049838289307

DIPOLE MOMENT
-------------
                                X             Y             Z
Electronic contribution:      0.39480      -1.96856       0.00380
Nuclear contribution   :     -0.55927       1.92253      -0.00390
                        -----------------------------------------
Total Dipole Moment    :     -0.16447      -0.04603      -0.00010
                        -----------------------------------------
Magnitude (a.u.)       :      0.17079
Magnitude (Debye)      :      0.43412

Rotational constants in cm-1:     0.005920     0.001229     0.001019
Rotational constants in MHz :   177.478005    36.835670    30.545032

                             ****ORCA TERMINATED NORMALLY****
TOTAL RUN TIME: 0 days 0 hours 8 minutes 59 seconds 559 msec
