                         Program Version 5.0.4 -  RELEASE  -
|  1> ! B3LYP EPR-II OPT
|  2> %pal nprocs 16 end
|  3> *XYZFile 0 2 model.xyz
|  4>
|  5>                          ****END OF INPUT****
 Total Charge           Charge          ....    0
 Multiplicity           Mult            ....    2
 Number of Electrons    NEL             ....  233
FINAL SINGLE POINT ENERGY     -1312.128512120745
FINAL SINGLE POINT ENERGY     -1312.129865617268
FINAL SINGLE POINT ENERGY     -1312.129921822974
FINAL SINGLE POINT ENERGY     -1312.129936824397
FINAL SINGLE POINT ENERGY     -1312.129939464515
                    ***********************HURRAY********************

CARTESIAN COORDINATES (ANGSTROEM)
---------------------------------
  C     12.372489   -0.025694   -0.003889
  C     11.145150   -0.063215   -0.002922
  C      5.462565   -0.006914   -0.000347
  C      9.723233   -0.084547   -0.002710
  C      8.991612   -1.334937   -0.006044
  C      7.568096   -1.243467   -0.004816
  C      6.893004   -0.016325   -0.001072
  C      7.626849    1.217846    0.001815
  C      9.022388    1.141947    0.000985
  H      6.979314   -2.154004   -0.007037
  H      9.609097    2.053376    0.003244
  C      9.656444   -2.584161   -0.010623
  H     10.743169   -2.571699   -0.011790
  C      8.970918   -3.924775   -0.013973
  H      8.311313   -4.012213    0.864083
  H      8.304814   -4.004599   -0.887804
  C      9.953853   -5.110550   -0.022881
  H     10.602571   -5.031957   -0.904622
  H     10.609737   -5.039380    0.854189
  C      9.243243   -6.474227   -0.025747
  H      8.602628   -6.583208   -0.908211
  H      8.610016   -6.590784    0.861075
  C      6.874312    2.537488    0.005734
  H      6.204452    2.553007   -0.865237
  H      6.206907    2.549285    0.878661
  C      7.726669    3.816139    0.007239
  H      8.383786    3.826556    0.887031
  H      8.381500    3.830052   -0.874213
  C      6.866889    5.093260    0.010916
  H      6.207411    5.087681   -0.867152
  H      6.209834    5.084269    0.890772
  C      7.707141    6.382065    0.012271
  H      8.350874    6.433206   -0.873088
  H      8.353723    6.429474    0.895760
  C      4.236866    0.003382    0.000853
  H      9.964186   -7.297992   -0.032279
  H      7.070770    7.273014    0.015172
  C      2.807403    0.008084    0.001450
  C      2.080609   -1.208579    0.000892
  C      0.685809   -1.204208    0.001358
  C     -0.030286    0.016401    0.002394
  C      0.692950    1.232841    0.002976
  C      2.087722    1.228900    0.002522
  H     -3.751620    0.027739    0.003502
  H      0.149364    2.172613    0.003768
  H      2.623629   -2.148642    0.000085
  H      2.635780    2.165988    0.002952
  H      0.136645   -2.140732    0.000917
  C     13.798775    0.029931   -0.004164
  C     14.572713   -1.158310   -0.005597
  C     15.965943   -1.100729   -0.005685
  C     16.635454    0.146381   -0.004361
  C     15.865940    1.334446   -0.002981
  C     14.472741    1.277822   -0.002884
  H     20.353446    0.300448   -0.004355
  H     16.373507    2.294185   -0.001977
  H     14.067080   -2.118971   -0.006570
  H     13.889054    2.193181   -0.001801
  H     16.550261   -2.015759   -0.006746
  C     18.068874    0.205329   -0.004397
  C     19.288394    0.255839   -0.004359
  C     -1.465183    0.020681    0.002826
  C     -2.685611    0.024498    0.003190

 Multiplicity           Mult            ....    2
 Number of Electrons    NEL             ....  233
 Basis Dimension        Dim             ....  781

ORBITAL ENERGIES
----------------
                 SPIN UP ORBITALS
  NO   OCC          E(Eh)            E(eV)
   0   1.0000     -10.236779      -278.5569
   1   1.0000     -10.236319      -278.5444
   2   1.0000     -10.235088      -278.5109
   3   1.0000     -10.234853      -278.5045
   4   1.0000     -10.228354      -278.3277
   5   1.0000     -10.226487      -278.2769
   6   1.0000     -10.215594      -277.9805
   7   1.0000     -10.213885      -277.9339
   8   1.0000     -10.213802      -277.9317
   9   1.0000     -10.212898      -277.9071
  10   1.0000     -10.212771      -277.9036
  11   1.0000     -10.212764      -277.9034
  12   1.0000     -10.212577      -277.8983
  13   1.0000     -10.212303      -277.8909
  14   1.0000     -10.212149      -277.8867
  15   1.0000     -10.211627      -277.8725
  16   1.0000     -10.211350      -277.8650
  17   1.0000     -10.211169      -277.8600
  18   1.0000     -10.208861      -277.7972
  19   1.0000     -10.207785      -277.7679
  20   1.0000     -10.206634      -277.7366
  21   1.0000     -10.205574      -277.7078
  22   1.0000     -10.205559      -277.7074
  23   1.0000     -10.203402      -277.6487
  24   1.0000     -10.202146      -277.6145
  25   1.0000     -10.201959      -277.6094
  26   1.0000     -10.200423      -277.5676
  27   1.0000     -10.191920      -277.3362
  28   1.0000     -10.190416      -277.2953
  29   1.0000     -10.186664      -277.1932
  30   1.0000     -10.184148      -277.1248
  31   1.0000     -10.183709      -277.1128
  32   1.0000     -10.175265      -276.8830
  33   1.0000     -10.173105      -276.8243
  34   1.0000      -0.876381       -23.8475
  35   1.0000      -0.874269       -23.7901
  36   1.0000      -0.872780       -23.7496
  37   1.0000      -0.822472       -22.3806
  38   1.0000      -0.808518       -22.0009
  39   1.0000      -0.806240       -21.9389
  40   1.0000      -0.796528       -21.6746
  41   1.0000      -0.792603       -21.5678
  42   1.0000      -0.769221       -20.9316
  43   1.0000      -0.760427       -20.6923
  44   1.0000      -0.759409       -20.6646
  45   1.0000      -0.759121       -20.6567
  46   1.0000      -0.747373       -20.3371
  47   1.0000      -0.735980       -20.0270
  48   1.0000      -0.726454       -19.7678
  49   1.0000      -0.713702       -19.4208
  50   1.0000      -0.699548       -19.0357
  51   1.0000      -0.660707       -17.9788
  52   1.0000      -0.658205       -17.9107
  53   1.0000      -0.643192       -17.5021
  54   1.0000      -0.623943       -16.9784
  55   1.0000      -0.621170       -16.9029
  56   1.0000      -0.619765       -16.8647
  57   1.0000      -0.619028       -16.8446
  58   1.0000      -0.595845       -16.2138
  59   1.0000      -0.584095       -15.8940
  60   1.0000      -0.566147       -15.4056
  61   1.0000      -0.555962       -15.1285
  62   1.0000      -0.554705       -15.0943
  63   1.0000      -0.544662       -14.8210
  64   1.0000      -0.536272       -14.5927
  65   1.0000      -0.511153       -13.9092
  66   1.0000      -0.509309       -13.8590
  67   1.0000      -0.499554       -13.5936
  68   1.0000      -0.494032       -13.4433
  69   1.0000      -0.481146       -13.0926
  70   1.0000      -0.474184       -12.9032
  71   1.0000      -0.472356       -12.8535
  72   1.0000      -0.470703       -12.8085
  73   1.0000      -0.466381       -12.6909
  74   1.0000      -0.448767       -12.2116
  75   1.0000      -0.447210       -12.1692
  76   1.0000      -0.436705       -11.8833
  77   1.0000      -0.434091       -11.8122
  78   1.0000      -0.432689       -11.7741
  79   1.0000      -0.432144       -11.7592
  80   1.0000      -0.428276       -11.6540
  81   1.0000      -0.425788       -11.5863
  82   1.0000      -0.414453       -11.2779
  83   1.0000      -0.402726       -10.9587
  84   1.0000      -0.401233       -10.9181
  85   1.0000      -0.394177       -10.7261
  86   1.0000      -0.393439       -10.7060
  87   1.0000      -0.387851       -10.5540
  88   1.0000      -0.386900       -10.5281
  89   1.0000      -0.382835       -10.4175
  90   1.0000      -0.381842       -10.3904
  91   1.0000      -0.367929       -10.0119
  92   1.0000      -0.364378        -9.9152
  93   1.0000      -0.362889        -9.8747
  94   1.0000      -0.359876        -9.7927
  95   1.0000      -0.359798        -9.7906
  96   1.0000      -0.345865        -9.4115
  97   1.0000      -0.341387        -9.2896
  98   1.0000      -0.337605        -9.1867
  99   1.0000      -0.335203        -9.1213
 100   1.0000      -0.332822        -9.0565
 101   1.0000      -0.330012        -8.9801
 102   1.0000      -0.327653        -8.9159
 103   1.0000      -0.324993        -8.8435
 104   1.0000      -0.312806        -8.5119
 105   1.0000      -0.286532        -7.7969
 106   1.0000      -0.282171        -7.6783
 107   1.0000      -0.280854        -7.6424
 108   1.0000      -0.275724        -7.5028
 109   1.0000      -0.274479        -7.4690
 110   1.0000      -0.272881        -7.4255
 111   1.0000      -0.267730        -7.2853
 112   1.0000      -0.266943        -7.2639
 113   1.0000      -0.261424        -7.1137
 114   1.0000      -0.231837        -6.3086
 115   1.0000      -0.211170        -5.7462
 116   1.0000      -0.175113        -4.7651
 117   0.0000      -0.079172        -2.1544
 118   0.0000      -0.053402        -1.4531
 119   0.0000      -0.022599        -0.6150
 120   0.0000      -0.021491        -0.5848
 121   0.0000      -0.018842        -0.5127

                 SPIN DOWN ORBITALS
  NO   OCC          E(Eh)            E(eV)
   0   1.0000     -10.236593      -278.5519
   1   1.0000     -10.236507      -278.5495
   2   1.0000     -10.235486      -278.5217
   3   1.0000     -10.234395      -278.4921
   4   1.0000     -10.228100      -278.3208
   5   1.0000     -10.224997      -278.2363
   6   1.0000     -10.215217      -277.9702
   7   1.0000     -10.213821      -277.9322
   8   1.0000     -10.213734      -277.9298
   9   1.0000     -10.213041      -277.9110
  10   1.0000     -10.212917      -277.9076
  11   1.0000     -10.212518      -277.8967
  12   1.0000     -10.212448      -277.8948
  13   1.0000     -10.212320      -277.8914
  14   1.0000     -10.212218      -277.8886
  15   1.0000     -10.211312      -277.8639
  16   1.0000     -10.211298      -277.8636
  17   1.0000     -10.210996      -277.8553
  18   1.0000     -10.208883      -277.7978
  19   1.0000     -10.207745      -277.7669
  20   1.0000     -10.206776      -277.7405
  21   1.0000     -10.205205      -277.6977
  22   1.0000     -10.203502      -277.6514
  23   1.0000     -10.202442      -277.6226
  24   1.0000     -10.202003      -277.6106
  25   1.0000     -10.201901      -277.6078
  26   1.0000     -10.192592      -277.3545
  27   1.0000     -10.192150      -277.3425
  28   1.0000     -10.190608      -277.3005
  29   1.0000     -10.186629      -277.1923
  30   1.0000     -10.184145      -277.1247
  31   1.0000     -10.183710      -277.1128
  32   1.0000     -10.175274      -276.8833
  33   1.0000     -10.173106      -276.8243
  34   1.0000      -0.875254       -23.8169
  35   1.0000      -0.873408       -23.7666
  36   1.0000      -0.871201       -23.7066
  37   1.0000      -0.818446       -22.2710
  38   1.0000      -0.807139       -21.9634
  39   1.0000      -0.805401       -21.9161
  40   1.0000      -0.794429       -21.6175
  41   1.0000      -0.791549       -21.5391
  42   1.0000      -0.767297       -20.8792
  43   1.0000      -0.760564       -20.6960
  44   1.0000      -0.759024       -20.6541
  45   1.0000      -0.758791       -20.6478
  46   1.0000      -0.746839       -20.3225
  47   1.0000      -0.733266       -19.9532
  48   1.0000      -0.724786       -19.7224
  49   1.0000      -0.712761       -19.3952
  50   1.0000      -0.697382       -18.9767
  51   1.0000      -0.659434       -17.9441
  52   1.0000      -0.655470       -17.8362
  53   1.0000      -0.642935       -17.4951
  54   1.0000      -0.622660       -16.9434
  55   1.0000      -0.621249       -16.9050
  56   1.0000      -0.619487       -16.8571
  57   1.0000      -0.613998       -16.7077
  58   1.0000      -0.594967       -16.1899
  59   1.0000      -0.582496       -15.8505
  60   1.0000      -0.563382       -15.3304
  61   1.0000      -0.556060       -15.1312
  62   1.0000      -0.554446       -15.0872
  63   1.0000      -0.544069       -14.8049
  64   1.0000      -0.535465       -14.5707
  65   1.0000      -0.509171       -13.8552
  66   1.0000      -0.507660       -13.8141
  67   1.0000      -0.498975       -13.5778
  68   1.0000      -0.493158       -13.4195
  69   1.0000      -0.479721       -13.0539
  70   1.0000      -0.473332       -12.8800
  71   1.0000      -0.472372       -12.8539
  72   1.0000      -0.470471       -12.8022
  73   1.0000      -0.463020       -12.5994
  74   1.0000      -0.448764       -12.2115
  75   1.0000      -0.447001       -12.1635
  76   1.0000      -0.435410       -11.8481
  77   1.0000      -0.434123       -11.8131
  78   1.0000      -0.432589       -11.7713
  79   1.0000      -0.429880       -11.6976
  80   1.0000      -0.427040       -11.6203
  81   1.0000      -0.423350       -11.5199
  82   1.0000      -0.414060       -11.2672
  83   1.0000      -0.400187       -10.8896
  84   1.0000      -0.396401       -10.7866
  85   1.0000      -0.393984       -10.7209
  86   1.0000      -0.391537       -10.6543
  87   1.0000      -0.387942       -10.5564
  88   1.0000      -0.386454       -10.5160
  89   1.0000      -0.379616       -10.3299
  90   1.0000      -0.379347       -10.3226
  91   1.0000      -0.366806        -9.9813
  92   1.0000      -0.364398        -9.9158
  93   1.0000      -0.362724        -9.8702
  94   1.0000      -0.358951        -9.7676
  95   1.0000      -0.356823        -9.7096
  96   1.0000      -0.345364        -9.3978
  97   1.0000      -0.339056        -9.2262
  98   1.0000      -0.335537        -9.1304
  99   1.0000      -0.334730        -9.1085
 100   1.0000      -0.331400        -9.0178
 101   1.0000      -0.329644        -8.9701
 102   1.0000      -0.327296        -8.9062
 103   1.0000      -0.324348        -8.8260
 104   1.0000      -0.310712        -8.4549
 105   1.0000      -0.283353        -7.7104
 106   1.0000      -0.282206        -7.6792
 107   1.0000      -0.280752        -7.6396
 108   1.0000      -0.274335        -7.4650
 109   1.0000      -0.272473        -7.4144
 110   1.0000      -0.268123        -7.2960
 111   1.0000      -0.265999        -7.2382
 112   1.0000      -0.262668        -7.1475
 113   1.0000      -0.258844        -7.0435
 114   1.0000      -0.230453        -6.2710
 115   1.0000      -0.204492        -5.5645
 116   0.0000      -0.093009        -2.5309
 117   0.0000      -0.070613        -1.9215
 118   0.0000      -0.051391        -1.3984
 119   0.0000      -0.022921        -0.6237
 120   0.0000      -0.020737        -0.5643

MULLIKEN ATOMIC CHARGES AND SPIN POPULATIONS
--------------------------------------------
   0 C :   -0.439620    0.095937
   1 C :   -0.380597   -0.066838
   2 C :   -0.383819    0.029748
   3 C :    0.502544    0.203396
   4 C :    0.374323   -0.138158
   5 C :   -0.445958    0.212597
   6 C :    0.564528   -0.091591
   7 C :    0.232458    0.218694
   8 C :   -0.385424   -0.109689
   9 H :    0.132377   -0.011426
  10 H :    0.133916    0.005118
  11 C :   -0.264141    0.690977
  12 H :    0.125591   -0.036267
  13 C :   -0.272632   -0.044593
  14 H :    0.152932    0.029185
  15 H :    0.152699    0.029047
  16 C :   -0.288975    0.002172
  17 H :    0.155002   -0.000151
  18 H :    0.154845   -0.000148
  19 C :   -0.509301   -0.000769
  20 H :    0.159400    0.000163
  21 H :    0.159405    0.000164
  22 C :   -0.355934   -0.016440
  23 H :    0.152138    0.010054
  24 H :    0.152232    0.010079
  25 C :   -0.272567    0.000900
  26 H :    0.142077    0.000166
  27 H :    0.142167    0.000167
  28 C :   -0.262108   -0.000226
  29 H :    0.144202    0.000041
  30 H :    0.144222    0.000041
  31 C :   -0.510257   -0.000083
  32 H :    0.159813    0.000022
  33 H :    0.159799    0.000022
  34 C :   -0.424989   -0.044425
  35 H :    0.146610   -0.000165
  36 H :    0.144342   -0.000005
  37 C :    0.657310    0.010475
  38 C :   -0.259896   -0.011357
  39 C :   -0.256499    0.006518
  40 C :    0.610400   -0.011704
  41 C :   -0.262095    0.006516
  42 C :   -0.248189   -0.011394
  43 H :    0.186703    0.000303
  44 H :    0.123097   -0.000331
  45 H :    0.121915    0.000599
  46 H :    0.121495    0.000600
  47 H :    0.123355   -0.000330
  48 C :    0.665287   -0.021775
  49 C :   -0.257086    0.026086
  50 C :   -0.258662   -0.015101
  51 C :    0.605898    0.028508
  52 C :   -0.258312   -0.015144
  53 C :   -0.255372    0.026449
  54 H :    0.186341   -0.000748
  55 H :    0.122877    0.000758
  56 H :    0.118548   -0.001357
  57 H :    0.121282   -0.001407
  58 H :    0.122728    0.000761
  59 C :   -0.065569   -0.009287
  60 C :   -0.496083    0.018197
  61 C :   -0.066087    0.003841
  62 C :   -0.494682   -0.007396
Sum of atomic charges         :   -0.0000000

LOEWDIN ATOMIC CHARGES AND SPIN POPULATIONS
-------------------------------------------
   0 C :   -0.038094    0.071876
   1 C :   -0.025023   -0.030505
   2 C :   -0.022719    0.017718
   3 C :   -0.054236    0.159457
   4 C :   -0.066051   -0.072243
   5 C :    0.010545    0.168940
   6 C :   -0.067626   -0.059378
   7 C :   -0.039656    0.172066
   8 C :   -0.008395   -0.064999
   9 H :    0.059613    0.001210
  10 H :    0.061074   -0.000574
  11 C :   -0.006325    0.570772
  12 H :    0.056922    0.004518
  13 C :   -0.082430    0.003451
  14 H :    0.054465    0.023909
  15 H :    0.054390    0.023784
  16 C :   -0.087668    0.000924
  17 H :    0.042217   -0.000048
  18 H :    0.042184   -0.000048
  19 C :   -0.077443   -0.000163
  20 H :    0.034417    0.000198
  21 H :    0.034417    0.000199
  22 C :   -0.044904    0.001589
  23 H :    0.059329    0.008001
  24 H :    0.059342    0.008018
  25 C :   -0.079451    0.000186
  26 H :    0.044719    0.000006
  27 H :    0.044748    0.000005
  28 C :   -0.090266   -0.000005
  29 H :    0.040860    0.000058
  30 H :    0.040864    0.000058
  31 C :   -0.078286   -0.000034
  32 H :    0.034178    0.000014
  33 H :    0.034178    0.000014
  34 C :   -0.036160   -0.034353
  35 H :    0.032639   -0.000083
  36 H :    0.031856   -0.000006
  37 C :   -0.066986    0.005934
  38 C :   -0.009963   -0.008951
  39 C :   -0.008543    0.004217
  40 C :   -0.072821   -0.009015
  41 C :   -0.008861    0.004213
  42 C :   -0.010394   -0.008940
  43 H :    0.046350   -0.000035
  44 H :    0.058969    0.000025
  45 H :    0.058151   -0.000030
  46 H :    0.057917   -0.000030
  47 H :    0.059037    0.000025
  48 C :   -0.066871   -0.012502
  49 C :   -0.011661    0.020749
  50 C :   -0.009290   -0.009720
  51 C :   -0.073774    0.021994
  52 C :   -0.008970   -0.009713
  53 C :   -0.010529    0.020949
  54 H :    0.046146    0.000088
  55 H :    0.058906   -0.000063
  56 H :    0.057082    0.000073
  57 H :    0.057993    0.000074
  58 H :    0.058842   -0.000064
  59 C :   -0.034710   -0.004348
  60 C :   -0.050527    0.014679
  61 C :   -0.034615    0.001824
  62 C :   -0.049104   -0.005964

  Mayer bond orders larger than 0.100000
B(  0-C ,  1-C ) :   2.2785 B(  0-C ,  3-C ) :   0.1024 B(  0-C , 48-C ) :   0.9712
B(  1-C ,  3-C ) :   0.7794 B(  2-C ,  6-C ) :   0.7363 B(  2-C , 34-C ) :   2.3340
B(  3-C ,  4-C ) :   1.2843 B(  3-C ,  7-C ) :   0.1064 B(  3-C ,  8-C ) :   1.4375
B(  4-C ,  5-C ) :   1.2245 B(  4-C ,  6-C ) :   0.1139 B(  4-C , 11-C ) :   1.2957
B(  5-C ,  6-C ) :   1.4971 B(  5-C ,  9-H ) :   0.9678 B(  6-C ,  7-C ) :   1.3417
B(  6-C ,  8-C ) :   0.1069 B(  6-C , 34-C ) :   0.1013 B(  7-C ,  8-C ) :   1.4166
B(  7-C , 22-C ) :   0.9633 B(  8-C , 10-H ) :   0.9697 B( 11-C , 12-H ) :   0.9823
B( 11-C , 13-C ) :   0.9984 B( 13-C , 14-H ) :   0.9560 B( 13-C , 15-H ) :   0.9559
B( 13-C , 16-C ) :   0.9820 B( 16-C , 17-H ) :   0.9722 B( 16-C , 18-H ) :   0.9721
B( 16-C , 19-C ) :   0.9626 B( 19-C , 20-H ) :   0.9728 B( 19-C , 21-H ) :   0.9728
B( 19-C , 35-H ) :   0.9672 B( 22-C , 23-H ) :   0.9550 B( 22-C , 24-H ) :   0.9552
B( 22-C , 25-C ) :   1.0241 B( 25-C , 26-H ) :   0.9614 B( 25-C , 27-H ) :   0.9615
B( 25-C , 28-C ) :   0.9864 B( 28-C , 29-H ) :   0.9717 B( 28-C , 30-H ) :   0.9717
B( 28-C , 31-C ) :   0.9553 B( 31-C , 32-H ) :   0.9731 B( 31-C , 33-H ) :   0.9731
B( 31-C , 36-H ) :   0.9671 B( 34-C , 37-C ) :   0.9560 B( 37-C , 38-C ) :   1.3823
B( 37-C , 39-C ) :   0.1048 B( 37-C , 41-C ) :   0.1034 B( 37-C , 42-C ) :   1.3742
B( 38-C , 39-C ) :   1.4961 B( 38-C , 45-H ) :   0.9764 B( 39-C , 40-C ) :   1.3683
B( 39-C , 47-H ) :   0.9736 B( 40-C , 41-C ) :   1.3722 B( 40-C , 61-C ) :   0.9092
B( 41-C , 42-C ) :   1.4975 B( 41-C , 44-H ) :   0.9748 B( 42-C , 46-H ) :   0.9756
B( 43-H , 62-C ) :   0.9808 B( 48-C , 49-C ) :   1.3712 B( 48-C , 50-C ) :   0.1027
B( 48-C , 52-C ) :   0.1036 B( 48-C , 53-C ) :   1.3694 B( 49-C , 50-C ) :   1.5001
B( 49-C , 56-H ) :   0.9763 B( 50-C , 51-C ) :   1.3694 B( 50-C , 58-H ) :   0.9746
B( 51-C , 52-C ) :   1.3676 B( 51-C , 59-C ) :   0.9113 B( 52-C , 53-C ) :   1.4986
B( 52-C , 55-H ) :   0.9737 B( 53-C , 57-H ) :   0.9767 B( 54-H , 60-C ) :   0.9810
B( 59-C , 60-C ) :   2.7822 B( 61-C , 62-C ) :   2.7841

FINAL SINGLE POINT ENERGY     -1312.129940090421

DIPOLE MOMENT
-------------
                                X             Y             Z
Electronic contribution:      0.30941      -1.97890       0.02598
Nuclear contribution   :     -0.48165       1.92184      -0.02647
                        -----------------------------------------
Total Dipole Moment    :     -0.17224      -0.05706      -0.00049
                        -----------------------------------------
Magnitude (a.u.)       :      0.18145
Magnitude (Debye)      :      0.46121

Rotational constants in cm-1:     0.005903     0.001223     0.001015
Rotational constants in MHz :   176.956112    36.669599    30.415046

                             ****ORCA TERMINATED NORMALLY****
TOTAL RUN TIME: 0 days 0 hours 22 minutes 49 seconds 700 msec
