                         Program Version 5.0.4 -  RELEASE  -
|  1> ! B3LYP cc-pVDZ AUTOAUX
|  2> %pal nprocs 16 end
|  3> *XYZFile 0 2 opt.xyz
|  4> %EPRNMR
|  5>         GTENSOR   TRUE
|  6>         NUCLEI    = ALL H {SHIFT, AISO, ADIP, AORB}
|  7>         ORI       CenterOfElCharge
|  8> END
|  9>
| 10>                          ****END OF INPUT****

CARTESIAN COORDINATES (ANGSTROEM)
---------------------------------
  C      4.260893   -0.079127   -0.043591
  C      0.045387   -0.014079   -0.133807
  C      0.704757   -1.253015   -0.085632
  C      2.101931   -1.235147   -0.057350
  C      2.827985   -0.025998   -0.075534
  C      2.154195    1.220084   -0.123807
  C      0.753332    1.188758   -0.152097
  H      2.668495   -2.165884   -0.020281
  H      0.193946    2.124579   -0.189644
  C     -0.111949   -2.534903   -0.064556
  H     -0.786166   -2.529706   -0.941570
  H     -0.783040   -2.503561    0.814548
  C      0.667170   -3.852699   -0.045898
  H      1.334018   -3.903925   -0.926359
  H      1.326150   -3.884500    0.841308
  C     -0.246311   -5.084124   -0.035413
  H     -0.916771   -5.033046    0.842757
  H     -0.906915   -5.055142   -0.922002
  C      0.524988   -6.406261   -0.014444
  H      1.168051   -6.480501    0.879526
  H      1.177898   -6.502965   -0.899066
  C      2.952208    2.510100   -0.142411
  H      3.610046    2.523794    0.746200
  H      3.648976    2.474747   -1.000122
  C      2.153064    3.815083   -0.196314
  H      1.507351    3.823318   -1.093673
  H      1.473136    3.874674    0.673437
  C      3.051950    5.057494   -0.215340
  H      3.705089    5.050199    0.677686
  H      3.731774    5.003740   -1.086612
  C      2.270402    6.375297   -0.262074
  H      1.591515    6.428490    0.610416
  H      1.615926    6.380765   -1.154594
  C      3.165360    7.619459   -0.283638
  H      3.840573    7.577327   -1.158008
  H      3.819142    7.623303    0.607847
  C      2.361317    8.944123   -0.328166
  H      1.709747    8.920359   -1.221882
  H      1.689242    8.967418    0.550198
  C      3.214355   10.168422   -0.351043
  H      3.591753   10.606491    0.577387
  H      3.614830   10.555345   -1.292458
  C      5.475492   -0.133120   -0.017706
  H      6.546487   -0.180814    0.006549
  H     -0.157012   -7.272012   -0.007233
  H     -1.048373    0.011018   -0.157638

 Total Charge           Charge          ....    0
 Multiplicity           Mult            ....    2
 Number of Electrons    NEL             ....  141
 Basis Dimension        Dim             ....  401

ORBITAL ENERGIES
----------------
                 SPIN UP ORBITALS
  NO   OCC          E(Eh)            E(eV)
   0   1.0000     -10.205488      -277.7055
   1   1.0000     -10.195846      -277.4431
   2   1.0000     -10.192501      -277.3521
   3   1.0000     -10.187915      -277.2273
   4   1.0000     -10.187087      -277.2047
   5   1.0000     -10.186768      -277.1961
   6   1.0000     -10.185645      -277.1655
   7   1.0000     -10.185397      -277.1587
   8   1.0000     -10.184360      -277.1305
   9   1.0000     -10.183728      -277.1133
  10   1.0000     -10.183536      -277.1081
  11   1.0000     -10.182253      -277.0732
  12   1.0000     -10.181598      -277.0554
  13   1.0000     -10.181469      -277.0519
  14   1.0000     -10.181154      -277.0433
  15   1.0000     -10.180793      -277.0335
  16   1.0000     -10.179122      -276.9880
  17   1.0000     -10.178852      -276.9806
  18   1.0000     -10.175829      -276.8984
  19   1.0000      -0.863879       -23.5073
  20   1.0000      -0.813307       -22.1312
  21   1.0000      -0.804046       -21.8792
  22   1.0000      -0.784781       -21.3550
  23   1.0000      -0.776723       -21.1357
  24   1.0000      -0.758523       -20.6405
  25   1.0000      -0.732335       -19.9279
  26   1.0000      -0.721477       -19.6324
  27   1.0000      -0.704436       -19.1687
  28   1.0000      -0.668025       -18.1779
  29   1.0000      -0.637551       -17.3486
  30   1.0000      -0.618024       -16.8173
  31   1.0000      -0.608585       -16.5604
  32   1.0000      -0.583027       -15.8650
  33   1.0000      -0.576659       -15.6917
  34   1.0000      -0.570701       -15.5296
  35   1.0000      -0.559235       -15.2176
  36   1.0000      -0.525402       -14.2969
  37   1.0000      -0.493451       -13.4275
  38   1.0000      -0.479945       -13.0600
  39   1.0000      -0.470464       -12.8020
  40   1.0000      -0.467831       -12.7303
  41   1.0000      -0.459726       -12.5098
  42   1.0000      -0.458520       -12.4770
  43   1.0000      -0.426412       -11.6033
  44   1.0000      -0.425774       -11.5859
  45   1.0000      -0.422145       -11.4871
  46   1.0000      -0.418740       -11.3945
  47   1.0000      -0.418443       -11.3864
  48   1.0000      -0.410943       -11.1823
  49   1.0000      -0.399153       -10.8615
  50   1.0000      -0.388598       -10.5743
  51   1.0000      -0.380498       -10.3539
  52   1.0000      -0.370848       -10.0913
  53   1.0000      -0.365920        -9.9572
  54   1.0000      -0.357943        -9.7401
  55   1.0000      -0.353536        -9.6202
  56   1.0000      -0.352422        -9.5899
  57   1.0000      -0.337620        -9.1871
  58   1.0000      -0.337085        -9.1726
  59   1.0000      -0.328949        -8.9512
  60   1.0000      -0.324596        -8.8327
  61   1.0000      -0.324240        -8.8230
  62   1.0000      -0.322568        -8.7775
  63   1.0000      -0.322185        -8.7671
  64   1.0000      -0.318702        -8.6723
  65   1.0000      -0.314473        -8.5572
  66   1.0000      -0.298603        -8.1254
  67   1.0000      -0.270431        -7.3588
  68   1.0000      -0.241024        -6.5586
  69   1.0000      -0.222626        -6.0580
  70   1.0000      -0.198458        -5.4003
  71   0.0000      -0.030215        -0.8222
  72   0.0000       0.002338         0.0636
  73   0.0000       0.049393         1.3440
  74   0.0000       0.061378         1.6702
  75   0.0000       0.062364         1.6970

                 SPIN DOWN ORBITALS
  NO   OCC          E(Eh)            E(eV)
   0   1.0000     -10.205488      -277.7054
   1   1.0000     -10.195843      -277.4430
   2   1.0000     -10.192501      -277.3521
   3   1.0000     -10.187915      -277.2273
   4   1.0000     -10.187087      -277.2047
   5   1.0000     -10.186768      -277.1961
   6   1.0000     -10.185397      -277.1587
   7   1.0000     -10.184613      -277.1374
   8   1.0000     -10.184360      -277.1305
   9   1.0000     -10.183530      -277.1079
  10   1.0000     -10.182253      -277.0732
  11   1.0000     -10.181598      -277.0554
  12   1.0000     -10.181469      -277.0519
  13   1.0000     -10.180757      -277.0325
  14   1.0000     -10.179588      -277.0007
  15   1.0000     -10.179077      -276.9868
  16   1.0000     -10.178673      -276.9758
  17   1.0000     -10.175829      -276.8984
  18   1.0000     -10.171591      -276.7831
  19   1.0000      -0.863876       -23.5073
  20   1.0000      -0.812835       -22.1184
  21   1.0000      -0.802463       -21.8361
  22   1.0000      -0.782407       -21.2904
  23   1.0000      -0.775725       -21.1085
  24   1.0000      -0.755745       -20.5649
  25   1.0000      -0.728518       -19.8240
  26   1.0000      -0.721476       -19.6324
  27   1.0000      -0.700479       -19.0610
  28   1.0000      -0.662284       -18.0217
  29   1.0000      -0.634224       -17.2581
  30   1.0000      -0.617139       -16.7932
  31   1.0000      -0.603518       -16.4226
  32   1.0000      -0.580347       -15.7920
  33   1.0000      -0.575205       -15.6521
  34   1.0000      -0.563793       -15.3416
  35   1.0000      -0.557143       -15.1606
  36   1.0000      -0.525389       -14.2966
  37   1.0000      -0.493421       -13.4267
  38   1.0000      -0.479088       -13.0367
  39   1.0000      -0.470460       -12.8019
  40   1.0000      -0.467788       -12.7292
  41   1.0000      -0.459647       -12.5076
  42   1.0000      -0.456291       -12.4163
  43   1.0000      -0.425819       -11.5871
  44   1.0000      -0.423247       -11.5171
  45   1.0000      -0.421807       -11.4779
  46   1.0000      -0.418134       -11.3780
  47   1.0000      -0.416643       -11.3374
  48   1.0000      -0.409105       -11.1323
  49   1.0000      -0.395224       -10.7546
  50   1.0000      -0.386380       -10.5139
  51   1.0000      -0.378072       -10.2879
  52   1.0000      -0.368637       -10.0311
  53   1.0000      -0.365102        -9.9349
  54   1.0000      -0.356262        -9.6944
  55   1.0000      -0.352051        -9.5798
  56   1.0000      -0.351673        -9.5695
  57   1.0000      -0.336673        -9.1613
  58   1.0000      -0.335534        -9.1304
  59   1.0000      -0.328144        -8.9292
  60   1.0000      -0.324301        -8.8247
  61   1.0000      -0.323982        -8.8160
  62   1.0000      -0.322049        -8.7634
  63   1.0000      -0.321174        -8.7396
  64   1.0000      -0.318198        -8.6586
  65   1.0000      -0.311477        -8.4757
  66   1.0000      -0.298602        -8.1254
  67   1.0000      -0.270423        -7.3586
  68   1.0000      -0.241023        -6.5586
  69   1.0000      -0.222625        -6.0579
  70   0.0000      -0.044683        -1.2159
  71   0.0000      -0.030215        -0.8222
  72   0.0000       0.002339         0.0636
  73   0.0000       0.049397         1.3441
  74   0.0000       0.061613         1.6766

MULLIKEN ATOMIC CHARGES AND SPIN POPULATIONS
--------------------------------------------
   0 C :    0.619862    0.000003
   1 C :    0.028679    0.000001
   2 C :   -0.025941   -0.000004
   3 C :    0.029546    0.000008
   4 C :   -0.059851    0.000011
   5 C :   -0.073102    0.000104
   6 C :    0.022818   -0.000008
   7 H :   -0.054948    0.000003
   8 H :   -0.043860   -0.000000
   9 C :    0.033484    0.000000
  10 H :    0.024337   -0.000000
  11 H :    0.025408   -0.000000
  12 C :   -0.039344    0.000000
  13 H :    0.016490   -0.000000
  14 H :    0.017371   -0.000000
  15 C :   -0.025275    0.000000
  16 H :    0.005033    0.000000
  17 H :    0.005070    0.000000
  18 C :    0.001031   -0.000000
  19 H :    0.017502    0.000000
  20 H :    0.017605    0.000000
  21 C :    0.047893    0.000272
  22 H :    0.030713   -0.000007
  23 H :    0.030623   -0.000007
  24 C :   -0.033801    0.001331
  25 H :    0.014028   -0.000040
  26 H :    0.013881   -0.000040
  27 C :    0.013315    0.000821
  28 H :    0.003360   -0.000027
  29 H :    0.003386   -0.000026
  30 C :   -0.005756    0.010089
  31 H :    0.001307   -0.000244
  32 H :    0.001299   -0.000247
  33 C :   -0.000178    0.049496
  34 H :    0.003581    0.000564
  35 H :    0.003600    0.000571
  36 C :   -0.001328   -0.065112
  37 H :    0.010436    0.013351
  38 H :    0.010455    0.013253
  39 C :   -0.068770    1.056110
  40 H :    0.024908   -0.040113
  41 H :    0.024902   -0.040109
  42 C :   -0.595098   -0.000003
  43 H :   -0.031442    0.000000
  44 H :    0.012600    0.000000
  45 H :   -0.055829   -0.000000
Sum of atomic charges         :   -0.0000000

LOEWDIN ATOMIC CHARGES AND SPIN POPULATIONS
-------------------------------------------
   0 C :   -0.001278    0.000002
   1 C :   -0.018414    0.000000
   2 C :   -0.027350   -0.000003
   3 C :   -0.005953    0.000007
   4 C :   -0.056865    0.000021
   5 C :   -0.005958    0.000095
   6 C :   -0.029542    0.000001
   7 H :    0.027621    0.000002
   8 H :    0.025709    0.000002
   9 C :   -0.035789   -0.000000
  10 H :    0.034806   -0.000000
  11 H :    0.035182   -0.000000
  12 C :   -0.044067    0.000000
  13 H :    0.024849    0.000000
  14 H :    0.024774    0.000000
  15 C :   -0.047623    0.000000
  16 H :    0.023512    0.000000
  17 H :    0.023518    0.000000
  18 C :   -0.067535   -0.000000
  19 H :    0.025367    0.000000
  20 H :    0.025403    0.000000
  21 C :   -0.034805    0.000247
  22 H :    0.038755   -0.000000
  23 H :    0.038703   -0.000000
  24 C :   -0.042421    0.001196
  25 H :    0.023492    0.000000
  26 H :    0.023482    0.000000
  27 C :   -0.039316    0.001498
  28 H :    0.023114    0.000029
  29 H :    0.023133    0.000030
  30 C :   -0.043412    0.007255
  31 H :    0.021898    0.000082
  32 H :    0.021912    0.000081
  33 C :   -0.037414    0.050448
  34 H :    0.021889    0.001109
  35 H :    0.021890    0.001107
  36 C :   -0.068378    0.010625
  37 H :    0.029233    0.010186
  38 H :    0.029219    0.010104
  39 C :   -0.016066    0.897879
  40 H :    0.009651    0.004000
  41 H :    0.009652    0.003998
  42 C :   -0.057254   -0.000003
  43 H :    0.021401   -0.000000
  44 H :    0.027358    0.000000
  45 H :    0.023915   -0.000000

  Mayer bond orders larger than 0.100000
B(  0-C ,  4-C ) :   0.9082 B(  0-C , 42-C ) :   2.1416 B(  1-C ,  2-C ) :   1.4218
B(  1-C ,  6-C ) :   1.4311 B(  1-C , 45-H ) :   0.9331 B(  2-C ,  3-C ) :   1.4267
B(  2-C ,  9-C ) :   1.0448 B(  3-C ,  4-C ) :   1.3925 B(  3-C ,  7-H ) :   0.9276
B(  4-C ,  5-C ) :   1.4096 B(  5-C ,  6-C ) :   1.4417 B(  5-C , 21-C ) :   1.0888
B(  6-C ,  8-H ) :   0.9182 B(  9-C , 10-H ) :   0.9145 B(  9-C , 11-H ) :   0.9138
B(  9-C , 12-C ) :   1.1040 B( 12-C , 13-H ) :   0.9313 B( 12-C , 14-H ) :   0.9302
B( 12-C , 15-C ) :   1.0751 B( 15-C , 16-H ) :   0.9414 B( 15-C , 17-H ) :   0.9413
B( 15-C , 18-C ) :   1.1057 B( 18-C , 19-H ) :   0.9665 B( 18-C , 20-H ) :   0.9666
B( 18-C , 44-H ) :   0.9621 B( 21-C , 22-H ) :   0.8984 B( 21-C , 23-H ) :   0.8987
B( 21-C , 24-C ) :   1.0999 B( 24-C , 25-H ) :   0.9275 B( 24-C , 26-H ) :   0.9275
B( 24-C , 27-C ) :   1.0779 B( 27-C , 28-H ) :   0.9340 B( 27-C , 29-H ) :   0.9340
B( 27-C , 30-C ) :   1.0777 B( 30-C , 31-H ) :   0.9358 B( 30-C , 32-H ) :   0.9358
B( 30-C , 33-C ) :   1.0779 B( 33-C , 34-H ) :   0.9402 B( 33-C , 35-H ) :   0.9402
B( 33-C , 36-C ) :   1.0485 B( 36-C , 37-H ) :   0.9359 B( 36-C , 38-H ) :   0.9359
B( 36-C , 39-C ) :   1.1363 B( 39-C , 40-H ) :   0.9649 B( 39-C , 41-H ) :   0.9649
B( 42-C , 43-H ) :   1.1165

FINAL SINGLE POINT ENERGY      -739.689209752168

DIPOLE MOMENT
-------------
                                X             Y             Z
Electronic contribution:      4.33870      -7.76060       0.42500
Nuclear contribution   :     -4.60861       7.61746      -0.42547
                        -----------------------------------------
Total Dipole Moment    :     -0.26992      -0.14313      -0.00047
                        -----------------------------------------
Magnitude (a.u.)       :      0.30552
Magnitude (Debye)      :      0.77657

Rotational constants in cm-1:     0.036145     0.002970     0.002760
Rotational constants in MHz :  1083.589681    89.033188    82.745367

CHEMICAL SHIELDING SUMMARY (ppm)  --  Orbital contribution
----------------------------------------------------------

  Nucleus  Element    Isotropic     Anisotropy
  -------  -------  ------------   ------------
      7       H           26.799          9.305
      8       H           72.403         31.219
     10       H           32.256         18.854
     11       H           31.760         19.696
     13       H           65.902         12.275
     14       H           64.424         12.223
     16       H            5.254         20.625
     17       H            6.399         20.113
     19       H           11.487         14.383
     20       H           12.534         14.303
     22       H           76.787         38.670
     23       H           77.085         38.472
     25       H           85.712         12.020
     26       H           85.376         12.093
     28       H           62.697         13.091
     29       H           62.916         13.004
     31       H           70.163          6.970
     32       H           70.440          6.908
     34       H           42.960         12.909
     35       H           42.764         12.952
     37       H           40.625          8.320
     38       H           40.356          8.412
     40       H          -66.005         18.898
     41       H          -65.569         18.854
     43       H          -32.075         10.597
     44       H         -103.895          3.839
     45       H           26.937          9.924

                             ****ORCA TERMINATED NORMALLY****
TOTAL RUN TIME: 0 days 0 hours 54 minutes 18 seconds 208 msec
