                         Program Version 5.0.4 -  RELEASE  -
|  1> ! B3LYP cc-pVDZ AUTOAUX
|  2> %pal nprocs 16 end
|  3> *XYZFile 0 2 opt.xyz
|  4> %EPRNMR
|  5>         GTENSOR   TRUE
|  6>         NUCLEI    = ALL H {SHIFT, AISO, ADIP, AORB}
|  7>         ORI       GIAO
|  8> END
|  9>
| 10>                          ****END OF INPUT****

CARTESIAN COORDINATES (ANGSTROEM)
---------------------------------
  C      4.260893   -0.079127   -0.043591
  C      0.045387   -0.014079   -0.133807
  C      0.704757   -1.253015   -0.085632
  C      2.101931   -1.235147   -0.057350
  C      2.827985   -0.025998   -0.075534
  C      2.154195    1.220084   -0.123807
  C      0.753332    1.188758   -0.152097
  H      2.668495   -2.165884   -0.020281
  H      0.193946    2.124579   -0.189644
  C     -0.111949   -2.534903   -0.064556
  H     -0.786166   -2.529706   -0.941570
  H     -0.783040   -2.503561    0.814548
  C      0.667170   -3.852699   -0.045898
  H      1.334018   -3.903925   -0.926359
  H      1.326150   -3.884500    0.841308
  C     -0.246311   -5.084124   -0.035413
  H     -0.916771   -5.033046    0.842757
  H     -0.906915   -5.055142   -0.922002
  C      0.524988   -6.406261   -0.014444
  H      1.168051   -6.480501    0.879526
  H      1.177898   -6.502965   -0.899066
  C      2.952208    2.510100   -0.142411
  H      3.610046    2.523794    0.746200
  H      3.648976    2.474747   -1.000122
  C      2.153064    3.815083   -0.196314
  H      1.507351    3.823318   -1.093673
  H      1.473136    3.874674    0.673437
  C      3.051950    5.057494   -0.215340
  H      3.705089    5.050199    0.677686
  H      3.731774    5.003740   -1.086612
  C      2.270402    6.375297   -0.262074
  H      1.591515    6.428490    0.610416
  H      1.615926    6.380765   -1.154594
  C      3.165360    7.619459   -0.283638
  H      3.840573    7.577327   -1.158008
  H      3.819142    7.623303    0.607847
  C      2.361317    8.944123   -0.328166
  H      1.709747    8.920359   -1.221882
  H      1.689242    8.967418    0.550198
  C      3.214355   10.168422   -0.351043
  H      3.591753   10.606491    0.577387
  H      3.614830   10.555345   -1.292458
  C      5.475492   -0.133120   -0.017706
  H      6.546487   -0.180814    0.006549
  H     -0.157012   -7.272012   -0.007233
  H     -1.048373    0.011018   -0.157638

 Total Charge           Charge          ....    0
 Multiplicity           Mult            ....    2
 Number of Electrons    NEL             ....  141
 Basis Dimension        Dim             ....  401

ORBITAL ENERGIES
----------------
                 SPIN UP ORBITALS
  NO   OCC          E(Eh)            E(eV)
   0   1.0000     -10.205539      -277.7068
   1   1.0000     -10.195961      -277.4462
   2   1.0000     -10.192342      -277.3477
   3   1.0000     -10.187886      -277.2265
   4   1.0000     -10.186987      -277.2020
   5   1.0000     -10.186598      -277.1914
   6   1.0000     -10.185700      -277.1670
   7   1.0000     -10.185342      -277.1572
   8   1.0000     -10.184344      -277.1301
   9   1.0000     -10.183790      -277.1150
  10   1.0000     -10.183628      -277.1106
  11   1.0000     -10.182259      -277.0734
  12   1.0000     -10.181589      -277.0551
  13   1.0000     -10.181572      -277.0547
  14   1.0000     -10.181188      -277.0442
  15   1.0000     -10.180826      -277.0344
  16   1.0000     -10.179174      -276.9894
  17   1.0000     -10.178889      -276.9816
  18   1.0000     -10.175898      -276.9002
  19   1.0000      -0.863851       -23.5066
  20   1.0000      -0.813311       -22.1313
  21   1.0000      -0.804054       -21.8794
  22   1.0000      -0.784796       -21.3554
  23   1.0000      -0.776709       -21.1353
  24   1.0000      -0.758525       -20.6405
  25   1.0000      -0.732347       -19.9282
  26   1.0000      -0.721467       -19.6321
  27   1.0000      -0.704440       -19.1688
  28   1.0000      -0.668038       -18.1782
  29   1.0000      -0.637541       -17.3484
  30   1.0000      -0.618006       -16.8168
  31   1.0000      -0.608592       -16.5606
  32   1.0000      -0.583029       -15.8650
  33   1.0000      -0.576668       -15.6919
  34   1.0000      -0.570718       -15.5300
  35   1.0000      -0.559228       -15.2174
  36   1.0000      -0.525437       -14.2979
  37   1.0000      -0.493459       -13.4277
  38   1.0000      -0.479968       -13.0606
  39   1.0000      -0.470450       -12.8016
  40   1.0000      -0.467803       -12.7296
  41   1.0000      -0.459708       -12.5093
  42   1.0000      -0.458544       -12.4776
  43   1.0000      -0.426405       -11.6031
  44   1.0000      -0.425794       -11.5864
  45   1.0000      -0.422140       -11.4870
  46   1.0000      -0.418748       -11.3947
  47   1.0000      -0.418437       -11.3862
  48   1.0000      -0.410936       -11.1821
  49   1.0000      -0.399165       -10.8618
  50   1.0000      -0.388616       -10.5748
  51   1.0000      -0.380508       -10.3541
  52   1.0000      -0.370864       -10.0917
  53   1.0000      -0.365912        -9.9570
  54   1.0000      -0.357934        -9.7399
  55   1.0000      -0.353527        -9.6199
  56   1.0000      -0.352424        -9.5900
  57   1.0000      -0.337628        -9.1873
  58   1.0000      -0.337102        -9.1730
  59   1.0000      -0.328944        -8.9510
  60   1.0000      -0.324593        -8.8326
  61   1.0000      -0.324244        -8.8231
  62   1.0000      -0.322576        -8.7777
  63   1.0000      -0.322197        -8.7674
  64   1.0000      -0.318719        -8.6728
  65   1.0000      -0.314488        -8.5576
  66   1.0000      -0.298591        -8.1251
  67   1.0000      -0.270444        -7.3591
  68   1.0000      -0.240982        -6.5575
  69   1.0000      -0.222626        -6.0580
  70   1.0000      -0.198461        -5.4004
  71   0.0000      -0.030204        -0.8219
  72   0.0000       0.002372         0.0645
  73   0.0000       0.049381         1.3437
  74   0.0000       0.061376         1.6701
  75   0.0000       0.062361         1.6969

                 SPIN DOWN ORBITALS
  NO   OCC          E(Eh)            E(eV)
   0   1.0000     -10.205538      -277.7068
   1   1.0000     -10.195958      -277.4461
   2   1.0000     -10.192342      -277.3477
   3   1.0000     -10.187886      -277.2265
   4   1.0000     -10.186987      -277.2020
   5   1.0000     -10.186598      -277.1914
   6   1.0000     -10.185342      -277.1572
   7   1.0000     -10.184665      -277.1388
   8   1.0000     -10.184344      -277.1301
   9   1.0000     -10.183621      -277.1104
  10   1.0000     -10.182259      -277.0734
  11   1.0000     -10.181589      -277.0551
  12   1.0000     -10.181572      -277.0547
  13   1.0000     -10.180791      -277.0334
  14   1.0000     -10.179622      -277.0016
  15   1.0000     -10.179130      -276.9882
  16   1.0000     -10.178707      -276.9767
  17   1.0000     -10.175898      -276.9002
  18   1.0000     -10.171671      -276.7852
  19   1.0000      -0.863848       -23.5065
  20   1.0000      -0.812835       -22.1184
  21   1.0000      -0.802471       -21.8364
  22   1.0000      -0.782414       -21.2906
  23   1.0000      -0.775714       -21.1083
  24   1.0000      -0.755747       -20.5649
  25   1.0000      -0.728532       -19.8244
  26   1.0000      -0.721466       -19.6321
  27   1.0000      -0.700486       -19.0612
  28   1.0000      -0.662299       -18.0221
  29   1.0000      -0.634213       -17.2578
  30   1.0000      -0.617126       -16.7928
  31   1.0000      -0.603527       -16.4228
  32   1.0000      -0.580346       -15.7920
  33   1.0000      -0.575221       -15.6526
  34   1.0000      -0.563799       -15.3418
  35   1.0000      -0.557149       -15.1608
  36   1.0000      -0.525425       -14.2975
  37   1.0000      -0.493429       -13.4269
  38   1.0000      -0.479111       -13.0373
  39   1.0000      -0.470446       -12.8015
  40   1.0000      -0.467760       -12.7284
  41   1.0000      -0.459629       -12.5071
  42   1.0000      -0.456316       -12.4170
  43   1.0000      -0.425808       -11.5868
  44   1.0000      -0.423265       -11.5176
  45   1.0000      -0.421803       -11.4779
  46   1.0000      -0.418129       -11.3779
  47   1.0000      -0.416642       -11.3374
  48   1.0000      -0.409107       -11.1324
  49   1.0000      -0.395232       -10.7548
  50   1.0000      -0.386395       -10.5143
  51   1.0000      -0.378080       -10.2881
  52   1.0000      -0.368651       -10.0315
  53   1.0000      -0.365093        -9.9347
  54   1.0000      -0.356257        -9.6943
  55   1.0000      -0.352041        -9.5795
  56   1.0000      -0.351674        -9.5695
  57   1.0000      -0.336680        -9.1615
  58   1.0000      -0.335552        -9.1308
  59   1.0000      -0.328134        -8.9290
  60   1.0000      -0.324300        -8.8246
  61   1.0000      -0.323981        -8.8160
  62   1.0000      -0.322061        -8.7637
  63   1.0000      -0.321179        -8.7397
  64   1.0000      -0.318215        -8.6591
  65   1.0000      -0.311500        -8.4764
  66   1.0000      -0.298590        -8.1251
  67   1.0000      -0.270436        -7.3589
  68   1.0000      -0.240982        -6.5574
  69   1.0000      -0.222625        -6.0579
  70   0.0000      -0.044727        -1.2171
  71   0.0000      -0.030203        -0.8219
  72   0.0000       0.002373         0.0646
  73   0.0000       0.049385         1.3438
  74   0.0000       0.061618         1.6767

MULLIKEN ATOMIC CHARGES AND SPIN POPULATIONS
--------------------------------------------
   0 C :    0.620284    0.000003
   1 C :    0.028687    0.000001
   2 C :   -0.025779   -0.000004
   3 C :    0.029762    0.000008
   4 C :   -0.059966    0.000011
   5 C :   -0.073291    0.000104
   6 C :    0.022830   -0.000008
   7 H :   -0.054988    0.000003
   8 H :   -0.043859   -0.000000
   9 C :    0.033461    0.000000
  10 H :    0.024325   -0.000000
  11 H :    0.025397   -0.000000
  12 C :   -0.039346    0.000000
  13 H :    0.016492   -0.000000
  14 H :    0.017373   -0.000000
  15 C :   -0.025285    0.000000
  16 H :    0.005037    0.000000
  17 H :    0.005075    0.000000
  18 C :    0.000953   -0.000000
  19 H :    0.017521    0.000000
  20 H :    0.017624    0.000000
  21 C :    0.047824    0.000272
  22 H :    0.030734   -0.000007
  23 H :    0.030644   -0.000007
  24 C :   -0.033802    0.001332
  25 H :    0.014041   -0.000040
  26 H :    0.013895   -0.000040
  27 C :    0.013272    0.000822
  28 H :    0.003374   -0.000027
  29 H :    0.003399   -0.000027
  30 C :   -0.005769    0.010100
  31 H :    0.001320   -0.000245
  32 H :    0.001312   -0.000248
  33 C :   -0.000197    0.049479
  34 H :    0.003592    0.000571
  35 H :    0.003611    0.000577
  36 C :   -0.001368   -0.064992
  37 H :    0.010455    0.013324
  38 H :    0.010474    0.013226
  39 C :   -0.068818    1.055865
  40 H :    0.024929   -0.040026
  41 H :    0.024923   -0.040022
  42 C :   -0.595492   -0.000003
  43 H :   -0.031433    0.000000
  44 H :    0.012617    0.000000
  45 H :   -0.055847   -0.000000
Sum of atomic charges         :   -0.0000000

LOEWDIN ATOMIC CHARGES AND SPIN POPULATIONS
-------------------------------------------
   0 C :   -0.001024    0.000002
   1 C :   -0.018398    0.000000
   2 C :   -0.027232   -0.000003
   3 C :   -0.005807    0.000007
   4 C :   -0.056921    0.000021
   5 C :   -0.006089    0.000095
   6 C :   -0.029547    0.000001
   7 H :    0.027607    0.000002
   8 H :    0.025708    0.000002
   9 C :   -0.035799   -0.000000
  10 H :    0.034800   -0.000000
  11 H :    0.035176   -0.000000
  12 C :   -0.044074    0.000000
  13 H :    0.024852    0.000000
  14 H :    0.024776    0.000000
  15 C :   -0.047630    0.000000
  16 H :    0.023515    0.000000
  17 H :    0.023521    0.000000
  18 C :   -0.067581   -0.000000
  19 H :    0.025377    0.000000
  20 H :    0.025413    0.000000
  21 C :   -0.034851    0.000248
  22 H :    0.038766   -0.000001
  23 H :    0.038714   -0.000001
  24 C :   -0.042421    0.001197
  25 H :    0.023500    0.000000
  26 H :    0.023490    0.000000
  27 C :   -0.039339    0.001499
  28 H :    0.023121    0.000029
  29 H :    0.023140    0.000030
  30 C :   -0.043419    0.007260
  31 H :    0.021906    0.000082
  32 H :    0.021920    0.000081
  33 C :   -0.037422    0.050446
  34 H :    0.021895    0.001111
  35 H :    0.021896    0.001110
  36 C :   -0.068403    0.010684
  37 H :    0.029244    0.010174
  38 H :    0.029230    0.010091
  39 C :   -0.016093    0.897755
  40 H :    0.009663    0.004040
  41 H :    0.009663    0.004039
  42 C :   -0.057514   -0.000003
  43 H :    0.021396   -0.000000
  44 H :    0.027366    0.000000
  45 H :    0.023906   -0.000000

  Mayer bond orders larger than 0.100000
B(  0-C ,  4-C ) :   0.9082 B(  0-C , 42-C ) :   2.1415 B(  1-C ,  2-C ) :   1.4218
B(  1-C ,  6-C ) :   1.4311 B(  1-C , 45-H ) :   0.9330 B(  2-C ,  3-C ) :   1.4267
B(  2-C ,  9-C ) :   1.0448 B(  3-C ,  4-C ) :   1.3925 B(  3-C ,  7-H ) :   0.9276
B(  4-C ,  5-C ) :   1.4096 B(  5-C ,  6-C ) :   1.4417 B(  5-C , 21-C ) :   1.0888
B(  6-C ,  8-H ) :   0.9182 B(  9-C , 10-H ) :   0.9145 B(  9-C , 11-H ) :   0.9138
B(  9-C , 12-C ) :   1.1040 B( 12-C , 13-H ) :   0.9313 B( 12-C , 14-H ) :   0.9302
B( 12-C , 15-C ) :   1.0751 B( 15-C , 16-H ) :   0.9414 B( 15-C , 17-H ) :   0.9413
B( 15-C , 18-C ) :   1.1057 B( 18-C , 19-H ) :   0.9665 B( 18-C , 20-H ) :   0.9666
B( 18-C , 44-H ) :   0.9621 B( 21-C , 22-H ) :   0.8984 B( 21-C , 23-H ) :   0.8987
B( 21-C , 24-C ) :   1.0999 B( 24-C , 25-H ) :   0.9275 B( 24-C , 26-H ) :   0.9275
B( 24-C , 27-C ) :   1.0779 B( 27-C , 28-H ) :   0.9340 B( 27-C , 29-H ) :   0.9340
B( 27-C , 30-C ) :   1.0777 B( 30-C , 31-H ) :   0.9358 B( 30-C , 32-H ) :   0.9358
B( 30-C , 33-C ) :   1.0779 B( 33-C , 34-H ) :   0.9402 B( 33-C , 35-H ) :   0.9402
B( 33-C , 36-C ) :   1.0485 B( 36-C , 37-H ) :   0.9359 B( 36-C , 38-H ) :   0.9359
B( 36-C , 39-C ) :   1.1363 B( 39-C , 40-H ) :   0.9649 B( 39-C , 41-H ) :   0.9649
B( 42-C , 43-H ) :   1.1165

FINAL SINGLE POINT ENERGY      -739.689212408911

DIPOLE MOMENT
-------------
                                X             Y             Z
Electronic contribution:      4.33769      -7.76122       0.42500
Nuclear contribution   :     -4.60861       7.61746      -0.42547
                        -----------------------------------------
Total Dipole Moment    :     -0.27092      -0.14375      -0.00047
                        -----------------------------------------
Magnitude (a.u.)       :      0.30670
Magnitude (Debye)      :      0.77957

Rotational constants in cm-1:     0.036145     0.002970     0.002760
Rotational constants in MHz :  1083.589681    89.033188    82.745367

CHEMICAL SHIELDING SUMMARY (ppm)  --  Orbital contribution
----------------------------------------------------------

  Nucleus  Element    Isotropic     Anisotropy
  -------  -------  ------------   ------------
      7       H           24.210         12.342
      8       H           24.457         10.367
     10       H           28.759          5.421
     11       H           28.737          5.341
     13       H           29.810          4.447
     14       H           29.775          4.576
     16       H           29.970          6.624
     17       H           29.971          6.649
     19       H           30.331          7.771
     20       H           30.331          7.754
     22       H           28.621          5.911
     23       H           28.622          5.943
     25       H           29.800          4.551
     26       H           29.805          4.535
     28       H           29.980          4.355
     29       H           29.978          4.361
     31       H           30.015          4.258
     32       H           30.012          4.259
     34       H           30.103          4.751
     35       H           30.104          4.745
     37       H           29.193          5.953
     38       H           29.194          5.947
     40       H           26.874          5.511
     41       H           26.875          5.514
     43       H           28.257         10.605
     44       H           30.135         10.179
     45       H           24.415          8.392

                             ****ORCA TERMINATED NORMALLY****
TOTAL RUN TIME: 0 days 0 hours 55 minutes 26 seconds 844 msec
