                         Program Version 5.0.4 -  RELEASE  -
|  1> ! B3LYP cc-pVDZ AUTOAUX
|  2> %pal nprocs 16 end
|  3> *XYZFile 0 2 opt_cc-pVDZ.xyz
|  4> %EPRNMR
|  5>         GTENSOR   TRUE
|  6>         NUCLEI    = ALL H {SHIFT, AISO, ADIP, AORB}
|  7>         ORI       GIAO
|  8> END
|  9>
| 10>                          ****END OF INPUT****

CARTESIAN COORDINATES (ANGSTROEM)
---------------------------------
  C      4.260858   -0.079059   -0.044003
  C      0.045450   -0.014090   -0.134842
  C      0.704771   -1.253031   -0.086291
  C      2.101954   -1.235180   -0.057796
  C      2.827944   -0.025995   -0.076106
  C      2.154189    1.220083   -0.124789
  C      0.753308    1.188798   -0.153319
  H      2.668497   -2.165912   -0.020459
  H      0.193918    2.124593   -0.191201
  C     -0.111958   -2.534895   -0.065106
  H     -0.785744   -2.530067   -0.942454
  H     -0.783440   -2.503205    0.813682
  C      0.667159   -3.852682   -0.045539
  H      1.334359   -3.904332   -0.925707
  H      1.325797   -3.884054    0.841939
  C     -0.246306   -5.084114   -0.034816
  H     -0.917017   -5.032681    0.843142
  H     -0.906655   -5.055516   -0.921607
  C      0.525018   -6.406223   -0.013061
  H      1.167844   -6.480056    0.881113
  H      1.178165   -6.503305   -0.897466
  C      2.952249    2.510065   -0.143621
  H      3.610531    2.523573    0.744656
  H      3.648581    2.474855   -1.001696
  C      2.153089    3.815066   -0.196858
  H      1.507145    3.823673   -1.094046
  H      1.473378    3.874270    0.673093
  C      3.051924    5.057517   -0.215562
  H      3.705029    5.049994    0.677487
  H      3.731779    5.004054   -1.086825
  C      2.270280    6.375265   -0.261870
  H      1.591532    6.428197    0.610746
  H      1.615679    6.380969   -1.154296
  C      3.165182    7.619488   -0.283178
  H      3.840345    7.577562   -1.157596
  H      3.818996    7.623060    0.608287
  C      2.361207    8.944210   -0.327269
  H      1.709407    8.920675   -1.220825
  H      1.689330    8.967401    0.551250
  C      3.214261   10.168439   -0.350108
  H      3.592496   10.605925    0.578245
  H      3.615223   10.555065   -1.291427
  C      5.475459   -0.132927   -0.017936
  H      6.546452   -0.180592    0.006458
  H     -0.156964   -7.271987   -0.005648
  H     -1.048305    0.010962   -0.158875

 Total Charge           Charge          ....    0
 Multiplicity           Mult            ....    2
 Number of Electrons    NEL             ....  141
 Basis Dimension        Dim             ....  401

ORBITAL ENERGIES
----------------
                 SPIN UP ORBITALS
  NO   OCC          E(Eh)            E(eV)
   0   1.0000     -10.205487      -277.7054
   1   1.0000     -10.195845      -277.4430
   2   1.0000     -10.192502      -277.3521
   3   1.0000     -10.187918      -277.2273
   4   1.0000     -10.187084      -277.2046
   5   1.0000     -10.186775      -277.1962
   6   1.0000     -10.185648      -277.1656
   7   1.0000     -10.185394      -277.1586
   8   1.0000     -10.184365      -277.1307
   9   1.0000     -10.183734      -277.1135
  10   1.0000     -10.183535      -277.1081
  11   1.0000     -10.182253      -277.0732
  12   1.0000     -10.181598      -277.0554
  13   1.0000     -10.181467      -277.0518
  14   1.0000     -10.181155      -277.0433
  15   1.0000     -10.180791      -277.0334
  16   1.0000     -10.179125      -276.9881
  17   1.0000     -10.178854      -276.9807
  18   1.0000     -10.175830      -276.8984
  19   1.0000      -0.863878       -23.5073
  20   1.0000      -0.813309       -22.1313
  21   1.0000      -0.804048       -21.8793
  22   1.0000      -0.784783       -21.3550
  23   1.0000      -0.776723       -21.1357
  24   1.0000      -0.758527       -20.6406
  25   1.0000      -0.732340       -19.9280
  26   1.0000      -0.721476       -19.6324
  27   1.0000      -0.704438       -19.1687
  28   1.0000      -0.668027       -18.1779
  29   1.0000      -0.637553       -17.3487
  30   1.0000      -0.618020       -16.8172
  31   1.0000      -0.608586       -16.5605
  32   1.0000      -0.583029       -15.8650
  33   1.0000      -0.576661       -15.6917
  34   1.0000      -0.570706       -15.5297
  35   1.0000      -0.559238       -15.2176
  36   1.0000      -0.525400       -14.2969
  37   1.0000      -0.493451       -13.4275
  38   1.0000      -0.479947       -13.0600
  39   1.0000      -0.470465       -12.8020
  40   1.0000      -0.467829       -12.7303
  41   1.0000      -0.459724       -12.5097
  42   1.0000      -0.458519       -12.4769
  43   1.0000      -0.426418       -11.6034
  44   1.0000      -0.425772       -11.5859
  45   1.0000      -0.422147       -11.4872
  46   1.0000      -0.418738       -11.3944
  47   1.0000      -0.418446       -11.3865
  48   1.0000      -0.410945       -11.1824
  49   1.0000      -0.399163       -10.8618
  50   1.0000      -0.388594       -10.5742
  51   1.0000      -0.380503       -10.3540
  52   1.0000      -0.370847       -10.0912
  53   1.0000      -0.365918        -9.9571
  54   1.0000      -0.357954        -9.7404
  55   1.0000      -0.353531        -9.6201
  56   1.0000      -0.352422        -9.5899
  57   1.0000      -0.337620        -9.1871
  58   1.0000      -0.337079        -9.1724
  59   1.0000      -0.328952        -8.9512
  60   1.0000      -0.324597        -8.8327
  61   1.0000      -0.324240        -8.8230
  62   1.0000      -0.322568        -8.7775
  63   1.0000      -0.322187        -8.7671
  64   1.0000      -0.318703        -8.6724
  65   1.0000      -0.314482        -8.5575
  66   1.0000      -0.298601        -8.1253
  67   1.0000      -0.270430        -7.3588
  68   1.0000      -0.241026        -6.5586
  69   1.0000      -0.222625        -6.0579
  70   1.0000      -0.198471        -5.4007
  71   0.0000      -0.030211        -0.8221
  72   0.0000       0.002331         0.0634
  73   0.0000       0.049394         1.3441
  74   0.0000       0.061377         1.6702
  75   0.0000       0.062365         1.6970

                 SPIN DOWN ORBITALS
  NO   OCC          E(Eh)            E(eV)
   0   1.0000     -10.205486      -277.7054
   1   1.0000     -10.195842      -277.4430
   2   1.0000     -10.192502      -277.3521
   3   1.0000     -10.187918      -277.2273
   4   1.0000     -10.187084      -277.2046
   5   1.0000     -10.186775      -277.1962
   6   1.0000     -10.185394      -277.1586
   7   1.0000     -10.184619      -277.1376
   8   1.0000     -10.184365      -277.1307
   9   1.0000     -10.183528      -277.1079
  10   1.0000     -10.182253      -277.0732
  11   1.0000     -10.181598      -277.0554
  12   1.0000     -10.181468      -277.0518
  13   1.0000     -10.180755      -277.0324
  14   1.0000     -10.179589      -277.0007
  15   1.0000     -10.179080      -276.9869
  16   1.0000     -10.178675      -276.9758
  17   1.0000     -10.175830      -276.8984
  18   1.0000     -10.171593      -276.7831
  19   1.0000      -0.863875       -23.5072
  20   1.0000      -0.812836       -22.1184
  21   1.0000      -0.802465       -21.8362
  22   1.0000      -0.782408       -21.2904
  23   1.0000      -0.775724       -21.1085
  24   1.0000      -0.755748       -20.5650
  25   1.0000      -0.728523       -19.8241
  26   1.0000      -0.721475       -19.6323
  27   1.0000      -0.700482       -19.0611
  28   1.0000      -0.662287       -18.0217
  29   1.0000      -0.634226       -17.2582
  30   1.0000      -0.617136       -16.7931
  31   1.0000      -0.603519       -16.4226
  32   1.0000      -0.580347       -15.7920
  33   1.0000      -0.575206       -15.6522
  34   1.0000      -0.563800       -15.3418
  35   1.0000      -0.557149       -15.1608
  36   1.0000      -0.525387       -14.2965
  37   1.0000      -0.493421       -13.4267
  38   1.0000      -0.479090       -13.0367
  39   1.0000      -0.470461       -12.8019
  40   1.0000      -0.467786       -12.7291
  41   1.0000      -0.459646       -12.5076
  42   1.0000      -0.456290       -12.4163
  43   1.0000      -0.425825       -11.5873
  44   1.0000      -0.423247       -11.5171
  45   1.0000      -0.421809       -11.4780
  46   1.0000      -0.418136       -11.3781
  47   1.0000      -0.416644       -11.3375
  48   1.0000      -0.409106       -11.1324
  49   1.0000      -0.395230       -10.7547
  50   1.0000      -0.386375       -10.5138
  51   1.0000      -0.378078       -10.2880
  52   1.0000      -0.368637       -10.0311
  53   1.0000      -0.365100        -9.9349
  54   1.0000      -0.356272        -9.6947
  55   1.0000      -0.352046        -9.5797
  56   1.0000      -0.351672        -9.5695
  57   1.0000      -0.336672        -9.1613
  58   1.0000      -0.335529        -9.1302
  59   1.0000      -0.328145        -8.9293
  60   1.0000      -0.324302        -8.8247
  61   1.0000      -0.323982        -8.8160
  62   1.0000      -0.322048        -8.7634
  63   1.0000      -0.321176        -8.7396
  64   1.0000      -0.318200        -8.6586
  65   1.0000      -0.311486        -8.4760
  66   1.0000      -0.298600        -8.1253
  67   1.0000      -0.270421        -7.3585
  68   1.0000      -0.241025        -6.5586
  69   1.0000      -0.222624        -6.0579
  70   0.0000      -0.044694        -1.2162
  71   0.0000      -0.030211        -0.8221
  72   0.0000       0.002332         0.0635
  73   0.0000       0.049398         1.3442
  74   0.0000       0.061613         1.6766

MULLIKEN ATOMIC CHARGES AND SPIN POPULATIONS
--------------------------------------------
   0 C :    0.619839    0.000003
   1 C :    0.028685    0.000001
   2 C :   -0.025948   -0.000004
   3 C :    0.029537    0.000008
   4 C :   -0.059839    0.000011
   5 C :   -0.073108    0.000104
   6 C :    0.022813   -0.000008
   7 H :   -0.054943    0.000003
   8 H :   -0.043858   -0.000000
   9 C :    0.033496    0.000000
  10 H :    0.024342   -0.000000
  11 H :    0.025407   -0.000000
  12 C :   -0.039354    0.000000
  13 H :    0.016495   -0.000000
  14 H :    0.017364   -0.000000
  15 C :   -0.025272    0.000000
  16 H :    0.005032    0.000000
  17 H :    0.005070    0.000000
  18 C :    0.001030   -0.000000
  19 H :    0.017500    0.000000
  20 H :    0.017607    0.000000
  21 C :    0.047902    0.000272
  22 H :    0.030710   -0.000007
  23 H :    0.030626   -0.000007
  24 C :   -0.033806    0.001331
  25 H :    0.014034   -0.000040
  26 H :    0.013874   -0.000040
  27 C :    0.013318    0.000821
  28 H :    0.003364   -0.000027
  29 H :    0.003384   -0.000026
  30 C :   -0.005752    0.010091
  31 H :    0.001310   -0.000244
  32 H :    0.001299   -0.000247
  33 C :   -0.000191    0.049504
  34 H :    0.003578    0.000563
  35 H :    0.003600    0.000570
  36 C :   -0.001315   -0.065106
  37 H :    0.010442    0.013350
  38 H :    0.010460    0.013248
  39 C :   -0.068778    1.056086
  40 H :    0.024903   -0.040104
  41 H :    0.024897   -0.040102
  42 C :   -0.595083   -0.000003
  43 H :   -0.031441    0.000000
  44 H :    0.012600    0.000000
  45 H :   -0.055833   -0.000000
Sum of atomic charges         :   -0.0000000

LOEWDIN ATOMIC CHARGES AND SPIN POPULATIONS
-------------------------------------------
   0 C :   -0.001274    0.000002
   1 C :   -0.018416    0.000000
   2 C :   -0.027349   -0.000003
   3 C :   -0.005952    0.000007
   4 C :   -0.056865    0.000021
   5 C :   -0.005952    0.000095
   6 C :   -0.029539    0.000001
   7 H :    0.027620    0.000002
   8 H :    0.025708    0.000002
   9 C :   -0.035788   -0.000000
  10 H :    0.034809   -0.000000
  11 H :    0.035181   -0.000000
  12 C :   -0.044067    0.000000
  13 H :    0.024846    0.000000
  14 H :    0.024776    0.000000
  15 C :   -0.047624    0.000000
  16 H :    0.023512    0.000000
  17 H :    0.023518    0.000000
  18 C :   -0.067535   -0.000000
  19 H :    0.025368    0.000000
  20 H :    0.025402    0.000000
  21 C :   -0.034805    0.000247
  22 H :    0.038752   -0.000000
  23 H :    0.038705   -0.000000
  24 C :   -0.042421    0.001196
  25 H :    0.023487    0.000000
  26 H :    0.023487    0.000000
  27 C :   -0.039316    0.001499
  28 H :    0.023119    0.000029
  29 H :    0.023131    0.000030
  30 C :   -0.043410    0.007257
  31 H :    0.021901    0.000082
  32 H :    0.021909    0.000081
  33 C :   -0.037411    0.050454
  34 H :    0.021888    0.001108
  35 H :    0.021892    0.001106
  36 C :   -0.068388    0.010635
  37 H :    0.029237    0.010186
  38 H :    0.029224    0.010099
  39 C :   -0.016066    0.897861
  40 H :    0.009648    0.004004
  41 H :    0.009648    0.004001
  42 C :   -0.057261   -0.000003
  43 H :    0.021401   -0.000000
  44 H :    0.027358    0.000000
  45 H :    0.023912   -0.000000

  Mayer bond orders larger than 0.100000
B(  0-C ,  4-C ) :   0.9082 B(  0-C , 42-C ) :   2.1417 B(  1-C ,  2-C ) :   1.4218
B(  1-C ,  6-C ) :   1.4311 B(  1-C , 45-H ) :   0.9331 B(  2-C ,  3-C ) :   1.4267
B(  2-C ,  9-C ) :   1.0448 B(  3-C ,  4-C ) :   1.3924 B(  3-C ,  7-H ) :   0.9276
B(  4-C ,  5-C ) :   1.4096 B(  5-C ,  6-C ) :   1.4417 B(  5-C , 21-C ) :   1.0888
B(  6-C ,  8-H ) :   0.9182 B(  9-C , 10-H ) :   0.9145 B(  9-C , 11-H ) :   0.9138
B(  9-C , 12-C ) :   1.1040 B( 12-C , 13-H ) :   0.9313 B( 12-C , 14-H ) :   0.9302
B( 12-C , 15-C ) :   1.0751 B( 15-C , 16-H ) :   0.9414 B( 15-C , 17-H ) :   0.9413
B( 15-C , 18-C ) :   1.1057 B( 18-C , 19-H ) :   0.9665 B( 18-C , 20-H ) :   0.9666
B( 18-C , 44-H ) :   0.9621 B( 21-C , 22-H ) :   0.8984 B( 21-C , 23-H ) :   0.8987
B( 21-C , 24-C ) :   1.0999 B( 24-C , 25-H ) :   0.9275 B( 24-C , 26-H ) :   0.9275
B( 24-C , 27-C ) :   1.0779 B( 27-C , 28-H ) :   0.9340 B( 27-C , 29-H ) :   0.9340
B( 27-C , 30-C ) :   1.0777 B( 30-C , 31-H ) :   0.9358 B( 30-C , 32-H ) :   0.9358
B( 30-C , 33-C ) :   1.0779 B( 33-C , 34-H ) :   0.9402 B( 33-C , 35-H ) :   0.9402
B( 33-C , 36-C ) :   1.0485 B( 36-C , 37-H ) :   0.9358 B( 36-C , 38-H ) :   0.9359
B( 36-C , 39-C ) :   1.1363 B( 39-C , 40-H ) :   0.9649 B( 39-C , 41-H ) :   0.9649
B( 42-C , 43-H ) :   1.1165

FINAL SINGLE POINT ENERGY      -739.689209675473

DIPOLE MOMENT
-------------
                                X             Y             Z
Electronic contribution:      4.33794      -7.76012       0.41835
Nuclear contribution   :     -4.60761       7.61668      -0.41887
                        -----------------------------------------
Total Dipole Moment    :     -0.26968      -0.14344      -0.00053
                        -----------------------------------------
Magnitude (a.u.)       :      0.30545
Magnitude (Debye)      :      0.77640

Rotational constants in cm-1:     0.036146     0.002970     0.002760
Rotational constants in MHz :  1083.615941    89.033687    82.745820

CHEMICAL SHIELDING SUMMARY (ppm)  --  Orbital contribution
----------------------------------------------------------

  Nucleus  Element    Isotropic     Anisotropy
  -------  -------  ------------   ------------
      7       H           24.195         12.367
      8       H           24.452         10.373
     10       H           28.758          5.416
     11       H           28.736          5.336
     13       H           29.804          4.448
     14       H           29.768          4.574
     16       H           29.965          6.623
     17       H           29.969          6.649
     19       H           30.327          7.772
     20       H           30.329          7.758
     22       H           28.621          5.917
     23       H           28.623          5.935
     25       H           29.795          4.559
     26       H           29.799          4.536
     28       H           29.981          4.351
     29       H           29.981          4.355
     31       H           30.011          4.258
     32       H           30.010          4.261
     34       H           30.109          4.748
     35       H           30.107          4.741
     37       H           29.197          5.955
     38       H           29.196          5.950
     40       H           26.882          5.499
     41       H           26.884          5.502
     43       H           28.255         10.603
     44       H           30.134         10.181
     45       H           24.414          8.394

                             ****ORCA TERMINATED NORMALLY****
TOTAL RUN TIME: 0 days 0 hours 54 minutes 34 seconds 124 msec
