                         Program Version 5.0.4 -  RELEASE  -
|  1> ! B3LYP cc-pVDZ AUTOAUX
|  2> %pal nprocs 16 end
|  3> *XYZFile 0 2 opt_cc-pVDZ.xyz
|  4> %EPRNMR
|  5>         GTENSOR   TRUE
|  6>         NUCLEI    = ALL H {SHIFT, AISO, ADIP, AORB}
|  7>         ORI       CenterOfElCharge
|  8> END
|  9>
| 10>                          ****END OF INPUT****

CARTESIAN COORDINATES (ANGSTROEM)
---------------------------------
  C      4.260858   -0.079059   -0.044003
  C      0.045450   -0.014090   -0.134842
  C      0.704771   -1.253031   -0.086291
  C      2.101954   -1.235180   -0.057796
  C      2.827944   -0.025995   -0.076106
  C      2.154189    1.220083   -0.124789
  C      0.753308    1.188798   -0.153319
  H      2.668497   -2.165912   -0.020459
  H      0.193918    2.124593   -0.191201
  C     -0.111958   -2.534895   -0.065106
  H     -0.785744   -2.530067   -0.942454
  H     -0.783440   -2.503205    0.813682
  C      0.667159   -3.852682   -0.045539
  H      1.334359   -3.904332   -0.925707
  H      1.325797   -3.884054    0.841939
  C     -0.246306   -5.084114   -0.034816
  H     -0.917017   -5.032681    0.843142
  H     -0.906655   -5.055516   -0.921607
  C      0.525018   -6.406223   -0.013061
  H      1.167844   -6.480056    0.881113
  H      1.178165   -6.503305   -0.897466
  C      2.952249    2.510065   -0.143621
  H      3.610531    2.523573    0.744656
  H      3.648581    2.474855   -1.001696
  C      2.153089    3.815066   -0.196858
  H      1.507145    3.823673   -1.094046
  H      1.473378    3.874270    0.673093
  C      3.051924    5.057517   -0.215562
  H      3.705029    5.049994    0.677487
  H      3.731779    5.004054   -1.086825
  C      2.270280    6.375265   -0.261870
  H      1.591532    6.428197    0.610746
  H      1.615679    6.380969   -1.154296
  C      3.165182    7.619488   -0.283178
  H      3.840345    7.577562   -1.157596
  H      3.818996    7.623060    0.608287
  C      2.361207    8.944210   -0.327269
  H      1.709407    8.920675   -1.220825
  H      1.689330    8.967401    0.551250
  C      3.214261   10.168439   -0.350108
  H      3.592496   10.605925    0.578245
  H      3.615223   10.555065   -1.291427
  C      5.475459   -0.132927   -0.017936
  H      6.546452   -0.180592    0.006458
  H     -0.156964   -7.271987   -0.005648
  H     -1.048305    0.010962   -0.158875

 Total Charge           Charge          ....    0
 Multiplicity           Mult            ....    2
 Number of Electrons    NEL             ....  141
 Basis Dimension        Dim             ....  401

ORBITAL ENERGIES
----------------
                 SPIN UP ORBITALS
  NO   OCC          E(Eh)            E(eV)
   0   1.0000     -10.205494      -277.7056
   1   1.0000     -10.195992      -277.4470
   2   1.0000     -10.192302      -277.3466
   3   1.0000     -10.187874      -277.2261
   4   1.0000     -10.186894      -277.1995
   5   1.0000     -10.186551      -277.1902
   6   1.0000     -10.185691      -277.1667
   7   1.0000     -10.185330      -277.1569
   8   1.0000     -10.184368      -277.1307
   9   1.0000     -10.183784      -277.1149
  10   1.0000     -10.183636      -277.1108
  11   1.0000     -10.182267      -277.0736
  12   1.0000     -10.181658      -277.0570
  13   1.0000     -10.181586      -277.0550
  14   1.0000     -10.181187      -277.0442
  15   1.0000     -10.180827      -277.0344
  16   1.0000     -10.179173      -276.9894
  17   1.0000     -10.178885      -276.9815
  18   1.0000     -10.175896      -276.9002
  19   1.0000      -0.863840       -23.5063
  20   1.0000      -0.813308       -22.1312
  21   1.0000      -0.804049       -21.8793
  22   1.0000      -0.784795       -21.3554
  23   1.0000      -0.776696       -21.1350
  24   1.0000      -0.758526       -20.6405
  25   1.0000      -0.732351       -19.9283
  26   1.0000      -0.721460       -19.6319
  27   1.0000      -0.704439       -19.1688
  28   1.0000      -0.668039       -18.1783
  29   1.0000      -0.637537       -17.3483
  30   1.0000      -0.617995       -16.8165
  31   1.0000      -0.608591       -16.5606
  32   1.0000      -0.583028       -15.8650
  33   1.0000      -0.576668       -15.6919
  34   1.0000      -0.570720       -15.5301
  35   1.0000      -0.559228       -15.2174
  36   1.0000      -0.525430       -14.2977
  37   1.0000      -0.493454       -13.4276
  38   1.0000      -0.479967       -13.0606
  39   1.0000      -0.470448       -12.8015
  40   1.0000      -0.467792       -12.7293
  41   1.0000      -0.459699       -12.5090
  42   1.0000      -0.458543       -12.4776
  43   1.0000      -0.426408       -11.6031
  44   1.0000      -0.425792       -11.5864
  45   1.0000      -0.422138       -11.4870
  46   1.0000      -0.418741       -11.3945
  47   1.0000      -0.418436       -11.3862
  48   1.0000      -0.410932       -11.1820
  49   1.0000      -0.399170       -10.8620
  50   1.0000      -0.388608       -10.5746
  51   1.0000      -0.380511       -10.3542
  52   1.0000      -0.370862       -10.0917
  53   1.0000      -0.365903        -9.9567
  54   1.0000      -0.357939        -9.7400
  55   1.0000      -0.353516        -9.6197
  56   1.0000      -0.352420        -9.5898
  57   1.0000      -0.337622        -9.1872
  58   1.0000      -0.337096        -9.1728
  59   1.0000      -0.328943        -8.9510
  60   1.0000      -0.324590        -8.8326
  61   1.0000      -0.324243        -8.8231
  62   1.0000      -0.322574        -8.7777
  63   1.0000      -0.322196        -8.7674
  64   1.0000      -0.318718        -8.6728
  65   1.0000      -0.314494        -8.5578
  66   1.0000      -0.298582        -8.1248
  67   1.0000      -0.270437        -7.3590
  68   1.0000      -0.240977        -6.5573
  69   1.0000      -0.222622        -6.0578
  70   1.0000      -0.198496        -5.4013
  71   0.0000      -0.030194        -0.8216
  72   0.0000       0.002371         0.0645
  73   0.0000       0.049390         1.3440
  74   0.0000       0.061377         1.6701
  75   0.0000       0.062363         1.6970

                 SPIN DOWN ORBITALS
  NO   OCC          E(Eh)            E(eV)
   0   1.0000     -10.205493      -277.7056
   1   1.0000     -10.195989      -277.4470
   2   1.0000     -10.192302      -277.3466
   3   1.0000     -10.187874      -277.2261
   4   1.0000     -10.186894      -277.1995
   5   1.0000     -10.186551      -277.1901
   6   1.0000     -10.185330      -277.1569
   7   1.0000     -10.184672      -277.1390
   8   1.0000     -10.184368      -277.1307
   9   1.0000     -10.183629      -277.1106
  10   1.0000     -10.182267      -277.0736
  11   1.0000     -10.181658      -277.0570
  12   1.0000     -10.181586      -277.0550
  13   1.0000     -10.180792      -277.0334
  14   1.0000     -10.179621      -277.0016
  15   1.0000     -10.179129      -276.9882
  16   1.0000     -10.178705      -276.9766
  17   1.0000     -10.175896      -276.9002
  18   1.0000     -10.171629      -276.7841
  19   1.0000      -0.863836       -23.5062
  20   1.0000      -0.812832       -22.1183
  21   1.0000      -0.802468       -21.8363
  22   1.0000      -0.782413       -21.2905
  23   1.0000      -0.775702       -21.1079
  24   1.0000      -0.755748       -20.5649
  25   1.0000      -0.728533       -19.8244
  26   1.0000      -0.721459       -19.6319
  27   1.0000      -0.700483       -19.0611
  28   1.0000      -0.662297       -18.0220
  29   1.0000      -0.634205       -17.2576
  30   1.0000      -0.617116       -16.7926
  31   1.0000      -0.603521       -16.4226
  32   1.0000      -0.580343       -15.7919
  33   1.0000      -0.575219       -15.6525
  34   1.0000      -0.563800       -15.3418
  35   1.0000      -0.557151       -15.1608
  36   1.0000      -0.525418       -14.2973
  37   1.0000      -0.493424       -13.4267
  38   1.0000      -0.479111       -13.0373
  39   1.0000      -0.470444       -12.8014
  40   1.0000      -0.467749       -12.7281
  41   1.0000      -0.459620       -12.5069
  42   1.0000      -0.456314       -12.4169
  43   1.0000      -0.425812       -11.5869
  44   1.0000      -0.423262       -11.5175
  45   1.0000      -0.421801       -11.4778
  46   1.0000      -0.418126       -11.3778
  47   1.0000      -0.416640       -11.3374
  48   1.0000      -0.409103       -11.1323
  49   1.0000      -0.395238       -10.7550
  50   1.0000      -0.386387       -10.5141
  51   1.0000      -0.378083       -10.2882
  52   1.0000      -0.368651       -10.0315
  53   1.0000      -0.365085        -9.9345
  54   1.0000      -0.356262        -9.6944
  55   1.0000      -0.352031        -9.5793
  56   1.0000      -0.351669        -9.5694
  57   1.0000      -0.336676        -9.1614
  58   1.0000      -0.335548        -9.1307
  59   1.0000      -0.328132        -8.9289
  60   1.0000      -0.324298        -8.8246
  61   1.0000      -0.323981        -8.8160
  62   1.0000      -0.322059        -8.7637
  63   1.0000      -0.321177        -8.7397
  64   1.0000      -0.318214        -8.6590
  65   1.0000      -0.311507        -8.4765
  66   1.0000      -0.298581        -8.1248
  67   1.0000      -0.270429        -7.3587
  68   1.0000      -0.240977        -6.5573
  69   1.0000      -0.222621        -6.0578
  70   0.0000      -0.044707        -1.2165
  71   0.0000      -0.030194        -0.8216
  72   0.0000       0.002372         0.0645
  73   0.0000       0.049394         1.3441
  74   0.0000       0.061618         1.6767

MULLIKEN ATOMIC CHARGES AND SPIN POPULATIONS
--------------------------------------------
   0 C :    0.620153    0.000003
   1 C :    0.028689    0.000001
   2 C :   -0.025856   -0.000004
   3 C :    0.029642    0.000008
   4 C :   -0.059862    0.000011
   5 C :   -0.073229    0.000104
   6 C :    0.022797   -0.000008
   7 H :   -0.054973    0.000003
   8 H :   -0.043854   -0.000000
   9 C :    0.033486    0.000000
  10 H :    0.024333   -0.000000
  11 H :    0.025397   -0.000000
  12 C :   -0.039353    0.000000
  13 H :    0.016496   -0.000000
  14 H :    0.017365   -0.000000
  15 C :   -0.025285    0.000000
  16 H :    0.005036    0.000000
  17 H :    0.005074    0.000000
  18 C :    0.001004   -0.000000
  19 H :    0.017507    0.000000
  20 H :    0.017614    0.000000
  21 C :    0.047872    0.000271
  22 H :    0.030723   -0.000007
  23 H :    0.030638   -0.000007
  24 C :   -0.033809    0.001330
  25 H :    0.014039   -0.000040
  26 H :    0.013880   -0.000040
  27 C :    0.013308    0.000820
  28 H :    0.003368   -0.000026
  29 H :    0.003388   -0.000025
  30 C :   -0.005753    0.010080
  31 H :    0.001313   -0.000243
  32 H :    0.001301   -0.000245
  33 C :   -0.000197    0.049520
  34 H :    0.003581    0.000557
  35 H :    0.003603    0.000563
  36 C :   -0.001332   -0.065218
  37 H :    0.010446    0.013376
  38 H :    0.010465    0.013274
  39 C :   -0.068765    1.056313
  40 H :    0.024901   -0.040186
  41 H :    0.024896   -0.040183
  42 C :   -0.595390   -0.000003
  43 H :   -0.031418    0.000000
  44 H :    0.012607    0.000000
  45 H :   -0.055845   -0.000000
Sum of atomic charges         :   -0.0000000

LOEWDIN ATOMIC CHARGES AND SPIN POPULATIONS
-------------------------------------------
   0 C :   -0.001082    0.000002
   1 C :   -0.018410    0.000000
   2 C :   -0.027285   -0.000003
   3 C :   -0.005877    0.000007
   4 C :   -0.056866    0.000021
   5 C :   -0.006034    0.000095
   6 C :   -0.029558    0.000001
   7 H :    0.027606    0.000002
   8 H :    0.025708    0.000002
   9 C :   -0.035789   -0.000000
  10 H :    0.034803   -0.000000
  11 H :    0.035175   -0.000000
  12 C :   -0.044070    0.000000
  13 H :    0.024846    0.000000
  14 H :    0.024777    0.000000
  15 C :   -0.047632    0.000000
  16 H :    0.023514    0.000000
  17 H :    0.023520    0.000000
  18 C :   -0.067552    0.000000
  19 H :    0.025372    0.000000
  20 H :    0.025407    0.000000
  21 C :   -0.034827    0.000247
  22 H :    0.038759   -0.000000
  23 H :    0.038712   -0.000000
  24 C :   -0.042422    0.001196
  25 H :    0.023490    0.000000
  26 H :    0.023490    0.000000
  27 C :   -0.039321    0.001498
  28 H :    0.023121    0.000030
  29 H :    0.023133    0.000031
  30 C :   -0.043410    0.007251
  31 H :    0.021903    0.000083
  32 H :    0.021911    0.000082
  33 C :   -0.037415    0.050456
  34 H :    0.021889    0.001105
  35 H :    0.021893    0.001103
  36 C :   -0.068398    0.010580
  37 H :    0.029239    0.010198
  38 H :    0.029226    0.010111
  39 C :   -0.016060    0.897975
  40 H :    0.009649    0.003966
  41 H :    0.009649    0.003964
  42 C :   -0.057461   -0.000003
  43 H :    0.021410   -0.000000
  44 H :    0.027361    0.000000
  45 H :    0.023905   -0.000000

  Mayer bond orders larger than 0.100000
B(  0-C ,  4-C ) :   0.9082 B(  0-C , 42-C ) :   2.1415 B(  1-C ,  2-C ) :   1.4218
B(  1-C ,  6-C ) :   1.4311 B(  1-C , 45-H ) :   0.9330 B(  2-C ,  3-C ) :   1.4267
B(  2-C ,  9-C ) :   1.0448 B(  3-C ,  4-C ) :   1.3924 B(  3-C ,  7-H ) :   0.9276
B(  4-C ,  5-C ) :   1.4096 B(  5-C ,  6-C ) :   1.4417 B(  5-C , 21-C ) :   1.0888
B(  6-C ,  8-H ) :   0.9182 B(  9-C , 10-H ) :   0.9145 B(  9-C , 11-H ) :   0.9138
B(  9-C , 12-C ) :   1.1040 B( 12-C , 13-H ) :   0.9313 B( 12-C , 14-H ) :   0.9302
B( 12-C , 15-C ) :   1.0751 B( 15-C , 16-H ) :   0.9414 B( 15-C , 17-H ) :   0.9413
B( 15-C , 18-C ) :   1.1057 B( 18-C , 19-H ) :   0.9665 B( 18-C , 20-H ) :   0.9666
B( 18-C , 44-H ) :   0.9621 B( 21-C , 22-H ) :   0.8984 B( 21-C , 23-H ) :   0.8987
B( 21-C , 24-C ) :   1.0999 B( 24-C , 25-H ) :   0.9275 B( 24-C , 26-H ) :   0.9275
B( 24-C , 27-C ) :   1.0779 B( 27-C , 28-H ) :   0.9340 B( 27-C , 29-H ) :   0.9340
B( 27-C , 30-C ) :   1.0777 B( 30-C , 31-H ) :   0.9358 B( 30-C , 32-H ) :   0.9358
B( 30-C , 33-C ) :   1.0779 B( 33-C , 34-H ) :   0.9402 B( 33-C , 35-H ) :   0.9402
B( 33-C , 36-C ) :   1.0485 B( 36-C , 37-H ) :   0.9359 B( 36-C , 38-H ) :   0.9359
B( 36-C , 39-C ) :   1.1363 B( 39-C , 40-H ) :   0.9649 B( 39-C , 41-H ) :   0.9649
B( 42-C , 43-H ) :   1.1165

FINAL SINGLE POINT ENERGY      -739.689215095776

DIPOLE MOMENT
-------------
                                X             Y             Z
Electronic contribution:      4.33752      -7.76036       0.41835
Nuclear contribution   :     -4.60761       7.61668      -0.41887
                        -----------------------------------------
Total Dipole Moment    :     -0.27010      -0.14368      -0.00053
                        -----------------------------------------
Magnitude (a.u.)       :      0.30594
Magnitude (Debye)      :      0.77764

Rotational constants in cm-1:     0.036146     0.002970     0.002760
Rotational constants in MHz :  1083.615941    89.033687    82.745820

CHEMICAL SHIELDING SUMMARY (ppm)  --  Orbital contribution
----------------------------------------------------------

  Nucleus  Element    Isotropic     Anisotropy
  -------  -------  ------------   ------------
      7       H           26.795          9.304
      8       H           72.400         31.219
     10       H           32.238         18.865
     11       H           31.778         19.685
     13       H           65.874         12.279
     14       H           64.449         12.219
     16       H            5.275         20.617
     17       H            6.376         20.122
     19       H           11.511         14.377
     20       H           12.512         14.308
     22       H           76.806         38.669
     23       H           77.065         38.477
     25       H           85.689         12.028
     26       H           85.402         12.085
     28       H           62.714         13.087
     29       H           62.893         13.009
     31       H           70.178          6.964
     32       H           70.421          6.914
     34       H           42.947         12.914
     35       H           42.783         12.948
     37       H           40.609          8.323
     38       H           40.352          8.412
     40       H          -65.962         18.918
     41       H          -65.528         18.874
     43       H          -32.070         10.599
     44       H         -103.895          3.838
     45       H           26.939          9.925

                             ****ORCA TERMINATED NORMALLY****
TOTAL RUN TIME: 0 days 0 hours 55 minutes 19 seconds 387 msec
