                         Program Version 5.0.4 -  RELEASE  -
|  1> ! B3LYP EPR-II AUTOAUX
|  2> %pal nprocs 16 end
|  3> *XYZFile 0 2 opt.xyz
|  4> %EPRNMR
|  5>         GTENSOR   TRUE
|  6>         NUCLEI    = ALL H {SHIFT, AISO, ADIP, AORB}
|  7>         ORI       CenterOfElCharge
|  8> END
|  9>
| 10>                          ****END OF INPUT****

CARTESIAN COORDINATES (ANGSTROEM)
---------------------------------
  C      4.260893   -0.079127   -0.043591
  C      0.045387   -0.014079   -0.133807
  C      0.704757   -1.253015   -0.085632
  C      2.101931   -1.235147   -0.057350
  C      2.827985   -0.025998   -0.075534
  C      2.154195    1.220084   -0.123807
  C      0.753332    1.188758   -0.152097
  H      2.668495   -2.165884   -0.020281
  H      0.193946    2.124579   -0.189644
  C     -0.111949   -2.534903   -0.064556
  H     -0.786166   -2.529706   -0.941570
  H     -0.783040   -2.503561    0.814548
  C      0.667170   -3.852699   -0.045898
  H      1.334018   -3.903925   -0.926359
  H      1.326150   -3.884500    0.841308
  C     -0.246311   -5.084124   -0.035413
  H     -0.916771   -5.033046    0.842757
  H     -0.906915   -5.055142   -0.922002
  C      0.524988   -6.406261   -0.014444
  H      1.168051   -6.480501    0.879526
  H      1.177898   -6.502965   -0.899066
  C      2.952208    2.510100   -0.142411
  H      3.610046    2.523794    0.746200
  H      3.648976    2.474747   -1.000122
  C      2.153064    3.815083   -0.196314
  H      1.507351    3.823318   -1.093673
  H      1.473136    3.874674    0.673437
  C      3.051950    5.057494   -0.215340
  H      3.705089    5.050199    0.677686
  H      3.731774    5.003740   -1.086612
  C      2.270402    6.375297   -0.262074
  H      1.591515    6.428490    0.610416
  H      1.615926    6.380765   -1.154594
  C      3.165360    7.619459   -0.283638
  H      3.840573    7.577327   -1.158008
  H      3.819142    7.623303    0.607847
  C      2.361317    8.944123   -0.328166
  H      1.709747    8.920359   -1.221882
  H      1.689242    8.967418    0.550198
  C      3.214355   10.168422   -0.351043
  H      3.591753   10.606491    0.577387
  H      3.614830   10.555345   -1.292458
  C      5.475492   -0.133120   -0.017706
  H      6.546487   -0.180814    0.006549
  H     -0.157012   -7.272012   -0.007233
  H     -1.048373    0.011018   -0.157638

 Total Charge           Charge          ....    0
 Multiplicity           Mult            ....    2
 Number of Electrons    NEL             ....  141
 Basis Dimension        Dim             ....  512

ORBITAL ENERGIES
----------------
                 SPIN UP ORBITALS
  NO   OCC          E(Eh)            E(eV)
   0   1.0000     -10.215745      -277.9846
   1   1.0000     -10.205414      -277.7034
   2   1.0000     -10.201617      -277.6001
   3   1.0000     -10.201147      -277.5873
   4   1.0000     -10.193585      -277.3816
   5   1.0000     -10.192790      -277.3599
   6   1.0000     -10.192194      -277.3437
   7   1.0000     -10.191592      -277.3273
   8   1.0000     -10.188811      -277.2516
   9   1.0000     -10.188565      -277.2450
  10   1.0000     -10.185482      -277.1611
  11   1.0000     -10.184611      -277.1374
  12   1.0000     -10.182831      -277.0889
  13   1.0000     -10.182168      -277.0709
  14   1.0000     -10.181782      -277.0604
  15   1.0000     -10.181288      -277.0469
  16   1.0000     -10.179549      -276.9996
  17   1.0000     -10.179323      -276.9934
  18   1.0000     -10.173329      -276.8304
  19   1.0000      -0.863224       -23.4895
  20   1.0000      -0.811261       -22.0755
  21   1.0000      -0.801944       -21.8220
  22   1.0000      -0.782758       -21.2999
  23   1.0000      -0.776716       -21.1355
  24   1.0000      -0.757228       -20.6052
  25   1.0000      -0.730515       -19.8783
  26   1.0000      -0.722605       -19.6631
  27   1.0000      -0.702840       -19.1253
  28   1.0000      -0.666507       -18.1366
  29   1.0000      -0.636475       -17.3194
  30   1.0000      -0.617912       -16.8142
  31   1.0000      -0.607555       -16.5324
  32   1.0000      -0.582516       -15.8511
  33   1.0000      -0.575567       -15.6620
  34   1.0000      -0.569893       -15.5076
  35   1.0000      -0.558799       -15.2057
  36   1.0000      -0.526628       -14.3303
  37   1.0000      -0.493732       -13.4351
  38   1.0000      -0.479490       -13.0476
  39   1.0000      -0.469938       -12.7877
  40   1.0000      -0.467369       -12.7178
  41   1.0000      -0.459674       -12.5084
  42   1.0000      -0.458623       -12.4798
  43   1.0000      -0.426017       -11.5925
  44   1.0000      -0.425572       -11.5804
  45   1.0000      -0.421350       -11.4655
  46   1.0000      -0.418269       -11.3817
  47   1.0000      -0.417501       -11.3608
  48   1.0000      -0.410252       -11.1635
  49   1.0000      -0.397506       -10.8167
  50   1.0000      -0.388721       -10.5776
  51   1.0000      -0.379667       -10.3313
  52   1.0000      -0.369628       -10.0581
  53   1.0000      -0.365771        -9.9531
  54   1.0000      -0.357133        -9.7181
  55   1.0000      -0.352885        -9.6025
  56   1.0000      -0.352358        -9.5881
  57   1.0000      -0.337672        -9.1885
  58   1.0000      -0.336389        -9.1536
  59   1.0000      -0.327962        -8.9243
  60   1.0000      -0.323628        -8.8064
  61   1.0000      -0.323526        -8.8036
  62   1.0000      -0.321988        -8.7617
  63   1.0000      -0.320877        -8.7315
  64   1.0000      -0.317679        -8.6445
  65   1.0000      -0.312980        -8.5166
  66   1.0000      -0.299350        -8.1457
  67   1.0000      -0.272173        -7.4062
  68   1.0000      -0.241138        -6.5617
  69   1.0000      -0.223372        -6.0783
  70   1.0000      -0.198611        -5.4045
  71   0.0000      -0.032645        -0.8883
  72   0.0000       0.000404         0.0110
  73   0.0000       0.020141         0.5481
  74   0.0000       0.023534         0.6404
  75   0.0000       0.024926         0.6783

                 SPIN DOWN ORBITALS
  NO   OCC          E(Eh)            E(eV)
   0   1.0000     -10.215745      -277.9845
   1   1.0000     -10.205411      -277.7034
   2   1.0000     -10.201617      -277.6001
   3   1.0000     -10.201147      -277.5873
   4   1.0000     -10.193585      -277.3815
   5   1.0000     -10.192790      -277.3599
   6   1.0000     -10.192194      -277.3437
   7   1.0000     -10.191592      -277.3273
   8   1.0000     -10.188811      -277.2516
   9   1.0000     -10.186339      -277.1844
  10   1.0000     -10.184605      -277.1372
  11   1.0000     -10.182831      -277.0889
  12   1.0000     -10.182168      -277.0709
  13   1.0000     -10.181252      -277.0460
  14   1.0000     -10.180219      -277.0178
  15   1.0000     -10.179480      -276.9977
  16   1.0000     -10.179169      -276.9893
  17   1.0000     -10.174781      -276.8699
  18   1.0000     -10.173329      -276.8304
  19   1.0000      -0.863221       -23.4894
  20   1.0000      -0.810837       -22.0640
  21   1.0000      -0.800282       -21.7768
  22   1.0000      -0.780536       -21.2395
  23   1.0000      -0.775655       -21.1066
  24   1.0000      -0.754356       -20.5271
  25   1.0000      -0.726743       -19.7757
  26   1.0000      -0.722586       -19.6626
  27   1.0000      -0.698947       -19.0193
  28   1.0000      -0.660842       -17.9824
  29   1.0000      -0.633295       -17.2328
  30   1.0000      -0.616871       -16.7859
  31   1.0000      -0.602681       -16.3998
  32   1.0000      -0.579621       -15.7723
  33   1.0000      -0.574072       -15.6213
  34   1.0000      -0.563537       -15.3346
  35   1.0000      -0.556869       -15.1532
  36   1.0000      -0.526617       -14.3300
  37   1.0000      -0.493703       -13.4343
  38   1.0000      -0.478590       -13.0231
  39   1.0000      -0.469934       -12.7875
  40   1.0000      -0.467334       -12.7168
  41   1.0000      -0.459595       -12.5062
  42   1.0000      -0.456335       -12.4175
  43   1.0000      -0.425164       -11.5693
  44   1.0000      -0.423421       -11.5219
  45   1.0000      -0.420792       -11.4503
  46   1.0000      -0.417957       -11.3732
  47   1.0000      -0.415721       -11.3124
  48   1.0000      -0.408162       -11.1066
  49   1.0000      -0.393566       -10.7095
  50   1.0000      -0.386529       -10.5180
  51   1.0000      -0.377262       -10.2658
  52   1.0000      -0.367463        -9.9992
  53   1.0000      -0.364968        -9.9313
  54   1.0000      -0.355438        -9.6720
  55   1.0000      -0.351680        -9.5697
  56   1.0000      -0.351417        -9.5625
  57   1.0000      -0.336736        -9.1631
  58   1.0000      -0.334820        -9.1109
  59   1.0000      -0.327318        -8.9068
  60   1.0000      -0.323307        -8.7976
  61   1.0000      -0.323175        -8.7940
  62   1.0000      -0.321519        -8.7490
  63   1.0000      -0.319964        -8.7066
  64   1.0000      -0.317210        -8.6317
  65   1.0000      -0.309751        -8.4287
  66   1.0000      -0.299349        -8.1457
  67   1.0000      -0.272163        -7.4059
  68   1.0000      -0.241138        -6.5617
  69   1.0000      -0.223371        -6.0782
  70   0.0000      -0.050972        -1.3870
  71   0.0000      -0.032644        -0.8883
  72   0.0000       0.000405         0.0110
  73   0.0000       0.020149         0.5483
  74   0.0000       0.023558         0.6410

MULLIKEN ATOMIC CHARGES AND SPIN POPULATIONS
--------------------------------------------
   0 C :    0.001280   -0.000041
   1 C :   -0.332972   -0.000007
   2 C :    0.511089    0.000000
   3 C :   -0.444753    0.000010
   4 C :    0.423136    0.000049
   5 C :    0.283286    0.000280
   6 C :   -0.243251   -0.000044
   7 H :    0.129546    0.000001
   8 H :    0.114563    0.000001
   9 C :   -0.396095    0.000004
  10 H :    0.145482   -0.000000
  11 H :    0.147324   -0.000000
  12 C :   -0.261185   -0.000002
  13 H :    0.142067    0.000000
  14 H :    0.140523    0.000000
  15 C :   -0.256843   -0.000000
  16 H :    0.140501    0.000000
  17 H :    0.140758    0.000000
  18 C :   -0.508152   -0.000000
  19 H :    0.158205   -0.000000
  20 H :    0.158311   -0.000000
  21 C :   -0.388390    0.000233
  22 H :    0.155915   -0.000007
  23 H :    0.155839   -0.000007
  24 C :   -0.270456    0.001499
  25 H :    0.141426   -0.000073
  26 H :    0.141364   -0.000072
  27 C :   -0.286630   -0.000968
  28 H :    0.142995    0.000055
  29 H :    0.143270    0.000055
  30 C :   -0.282037    0.006438
  31 H :    0.144686   -0.000270
  32 H :    0.144677   -0.000269
  33 C :   -0.302951    0.069499
  34 H :    0.156007   -0.002748
  35 H :    0.155965   -0.002737
  36 C :   -0.223273   -0.073466
  37 H :    0.147151    0.012465
  38 H :    0.147154    0.012367
  39 C :   -0.433225    1.056962
  40 H :    0.165929   -0.039604
  41 H :    0.165929   -0.039604
  42 C :   -0.541182    0.000000
  43 H :    0.180236   -0.000000
  44 H :    0.143391   -0.000000
  45 H :    0.103389   -0.000001
Sum of atomic charges         :   -0.0000000

LOEWDIN ATOMIC CHARGES AND SPIN POPULATIONS
-------------------------------------------
   0 C :   -0.030345    0.000002
   1 C :   -0.038236    0.000000
   2 C :   -0.071740   -0.000003
   3 C :   -0.011092    0.000006
   4 C :   -0.076010    0.000019
   5 C :   -0.044514    0.000095
   6 C :   -0.041930    0.000000
   7 H :    0.061254    0.000002
   8 H :    0.054741    0.000001
   9 C :   -0.061274   -0.000000
  10 H :    0.056346   -0.000000
  11 H :    0.056636   -0.000000
  12 C :   -0.084654    0.000000
  13 H :    0.047667    0.000000
  14 H :    0.047187    0.000000
  15 C :   -0.096901    0.000000
  16 H :    0.043158    0.000000
  17 H :    0.043131    0.000000
  18 C :   -0.084703    0.000000
  19 H :    0.036496    0.000000
  20 H :    0.036521    0.000000
  21 C :   -0.048374    0.000231
  22 H :    0.061606    0.000001
  23 H :    0.061599    0.000001
  24 C :   -0.082974    0.001240
  25 H :    0.046451   -0.000011
  26 H :    0.046478   -0.000011
  27 C :   -0.087159    0.001382
  28 H :    0.047162    0.000057
  29 H :    0.047172    0.000058
  30 C :   -0.091376    0.007208
  31 H :    0.046185    0.000012
  32 H :    0.046207    0.000012
  33 C :   -0.086558    0.058641
  34 H :    0.046783    0.000014
  35 H :    0.046784    0.000010
  36 C :   -0.112053    0.012523
  37 H :    0.049599    0.010057
  38 H :    0.049561    0.009972
  39 C :   -0.053030    0.887141
  40 H :    0.028912    0.005672
  41 H :    0.028923    0.005670
  42 C :   -0.069455   -0.000003
  43 H :    0.048002    0.000000
  44 H :    0.033640    0.000000
  45 H :    0.054176   -0.000000

  Mayer bond orders larger than 0.100000
B(  0-C ,  4-C ) :   0.9165 B(  0-C , 42-C ) :   2.6954 B(  1-C ,  2-C ) :   1.3693
B(  1-C ,  3-C ) :   0.1208 B(  1-C ,  5-C ) :   0.1053 B(  1-C ,  6-C ) :   1.4842
B(  1-C , 45-H ) :   0.9828 B(  2-C ,  3-C ) :   1.4468 B(  2-C ,  4-C ) :   0.1079
B(  2-C ,  9-C ) :   0.8974 B(  3-C ,  4-C ) :   1.4238 B(  3-C ,  7-H ) :   0.9819
B(  4-C ,  5-C ) :   1.3825 B(  4-C ,  6-C ) :   0.1101 B(  5-C ,  6-C ) :   1.4246
B(  5-C , 21-C ) :   0.9452 B(  6-C ,  8-H ) :   0.9786 B(  9-C , 10-H ) :   0.9691
B(  9-C , 11-H ) :   0.9679 B(  9-C , 12-C ) :   1.0204 B( 12-C , 13-H ) :   0.9629
B( 12-C , 14-H ) :   0.9614 B( 12-C , 15-C ) :   0.9841 B( 15-C , 16-H ) :   0.9723
B( 15-C , 17-H ) :   0.9720 B( 15-C , 18-C ) :   0.9561 B( 18-C , 19-H ) :   0.9719
B( 18-C , 20-H ) :   0.9717 B( 18-C , 44-H ) :   0.9685 B( 21-C , 22-H ) :   0.9583
B( 21-C , 23-H ) :   0.9585 B( 21-C , 24-C ) :   1.0028 B( 24-C , 25-H ) :   0.9621
B( 24-C , 26-H ) :   0.9622 B( 24-C , 27-C ) :   0.9742 B( 27-C , 28-H ) :   0.9758
B( 27-C , 29-H ) :   0.9760 B( 27-C , 30-C ) :   0.9706 B( 30-C , 31-H ) :   0.9803
B( 30-C , 32-H ) :   0.9802 B( 30-C , 33-C ) :   0.9563 B( 33-C , 34-H ) :   0.9788
B( 33-C , 35-H ) :   0.9787 B( 33-C , 36-C ) :   0.9365 B( 36-C , 37-H ) :   0.9776
B( 36-C , 38-H ) :   0.9777 B( 36-C , 39-C ) :   0.9745 B( 39-C , 40-H ) :   0.9734
B( 39-C , 41-H ) :   0.9734 B( 42-C , 43-H ) :   0.9840

FINAL SINGLE POINT ENERGY      -739.769090232963

DIPOLE MOMENT
-------------
                                X             Y             Z
Electronic contribution:      4.29715      -7.76585       0.42356
Nuclear contribution   :     -4.60861       7.61746      -0.42547
                        -----------------------------------------
Total Dipole Moment    :     -0.31147      -0.14838      -0.00190
                        -----------------------------------------
Magnitude (a.u.)       :      0.34501
Magnitude (Debye)      :      0.87695

Rotational constants in cm-1:     0.036145     0.002970     0.002760
Rotational constants in MHz :  1083.589681    89.033188    82.745367

CHEMICAL SHIELDING SUMMARY (ppm)  --  Orbital contribution
----------------------------------------------------------

  Nucleus  Element    Isotropic     Anisotropy
  -------  -------  ------------   ------------
      7       H           24.544          6.672
      8       H           69.358         28.054
     10       H           31.112         18.070
     11       H           30.636         18.883
     13       H           64.210         11.231
     14       H           62.745         11.197
     16       H            4.584         20.494
     17       H            5.737         19.956
     19       H           13.119         13.207
     20       H           14.154         13.095
     22       H           74.067         36.757
     23       H           74.364         36.528
     25       H           82.780         10.899
     26       H           82.442         10.953
     28       H           60.542         12.482
     29       H           60.763         12.381
     31       H           68.360          6.344
     32       H           68.636          6.280
     34       H           42.388         12.532
     35       H           42.189         12.588
     37       H           40.303          8.304
     38       H           40.034          8.405
     40       H          -63.914         17.166
     41       H          -63.474         17.119
     43       H          -35.213          9.746
     44       H          -99.148          7.293
     45       H           25.020          7.609

                             ****ORCA TERMINATED NORMALLY****
TOTAL RUN TIME: 0 days 1 hours 1 minutes 59 seconds 508 msec
