                         Program Version 5.0.4 -  RELEASE  -
|  1> ! B3LYP EPR-II AUTOAUX
|  2> %pal nprocs 16 end
|  3> *XYZFile 0 2 opt.xyz
|  4> %EPRNMR
|  5>         GTENSOR   TRUE
|  6>         NUCLEI    = ALL H {SHIFT, AISO, ADIP, AORB}
|  7>         ORI       GIAO
|  8> END
|  9>
| 10>                          ****END OF INPUT****

CARTESIAN COORDINATES (ANGSTROEM)
---------------------------------
  C      4.260893   -0.079127   -0.043591
  C      0.045387   -0.014079   -0.133807
  C      0.704757   -1.253015   -0.085632
  C      2.101931   -1.235147   -0.057350
  C      2.827985   -0.025998   -0.075534
  C      2.154195    1.220084   -0.123807
  C      0.753332    1.188758   -0.152097
  H      2.668495   -2.165884   -0.020281
  H      0.193946    2.124579   -0.189644
  C     -0.111949   -2.534903   -0.064556
  H     -0.786166   -2.529706   -0.941570
  H     -0.783040   -2.503561    0.814548
  C      0.667170   -3.852699   -0.045898
  H      1.334018   -3.903925   -0.926359
  H      1.326150   -3.884500    0.841308
  C     -0.246311   -5.084124   -0.035413
  H     -0.916771   -5.033046    0.842757
  H     -0.906915   -5.055142   -0.922002
  C      0.524988   -6.406261   -0.014444
  H      1.168051   -6.480501    0.879526
  H      1.177898   -6.502965   -0.899066
  C      2.952208    2.510100   -0.142411
  H      3.610046    2.523794    0.746200
  H      3.648976    2.474747   -1.000122
  C      2.153064    3.815083   -0.196314
  H      1.507351    3.823318   -1.093673
  H      1.473136    3.874674    0.673437
  C      3.051950    5.057494   -0.215340
  H      3.705089    5.050199    0.677686
  H      3.731774    5.003740   -1.086612
  C      2.270402    6.375297   -0.262074
  H      1.591515    6.428490    0.610416
  H      1.615926    6.380765   -1.154594
  C      3.165360    7.619459   -0.283638
  H      3.840573    7.577327   -1.158008
  H      3.819142    7.623303    0.607847
  C      2.361317    8.944123   -0.328166
  H      1.709747    8.920359   -1.221882
  H      1.689242    8.967418    0.550198
  C      3.214355   10.168422   -0.351043
  H      3.591753   10.606491    0.577387
  H      3.614830   10.555345   -1.292458
  C      5.475492   -0.133120   -0.017706
  H      6.546487   -0.180814    0.006549
  H     -0.157012   -7.272012   -0.007233
  H     -1.048373    0.011018   -0.157638

 Total Charge           Charge          ....    0
 Multiplicity           Mult            ....    2
 Number of Electrons    NEL             ....  141
 Basis Dimension        Dim             ....  512

ORBITAL ENERGIES
----------------
                 SPIN UP ORBITALS
  NO   OCC          E(Eh)            E(eV)
   0   1.0000     -10.215661      -277.9823
   1   1.0000     -10.205232      -277.6985
   2   1.0000     -10.201839      -277.6062
   3   1.0000     -10.201085      -277.5856
   4   1.0000     -10.193818      -277.3879
   5   1.0000     -10.192840      -277.3613
   6   1.0000     -10.192221      -277.3444
   7   1.0000     -10.191551      -277.3262
   8   1.0000     -10.188905      -277.2542
   9   1.0000     -10.188553      -277.2446
  10   1.0000     -10.185456      -277.1604
  11   1.0000     -10.184517      -277.1348
  12   1.0000     -10.182817      -277.0885
  13   1.0000     -10.182188      -277.0714
  14   1.0000     -10.181755      -277.0596
  15   1.0000     -10.181269      -277.0464
  16   1.0000     -10.179531      -276.9991
  17   1.0000     -10.179307      -276.9930
  18   1.0000     -10.173312      -276.8299
  19   1.0000      -0.863237       -23.4899
  20   1.0000      -0.811266       -22.0757
  21   1.0000      -0.801945       -21.8220
  22   1.0000      -0.782751       -21.2997
  23   1.0000      -0.776707       -21.1353
  24   1.0000      -0.757226       -20.6052
  25   1.0000      -0.730510       -19.8782
  26   1.0000      -0.722620       -19.6635
  27   1.0000      -0.702844       -19.1254
  28   1.0000      -0.666497       -18.1363
  29   1.0000      -0.636492       -17.3198
  30   1.0000      -0.617916       -16.8143
  31   1.0000      -0.607547       -16.5322
  32   1.0000      -0.582511       -15.8509
  33   1.0000      -0.575564       -15.6619
  34   1.0000      -0.569883       -15.5073
  35   1.0000      -0.558799       -15.2057
  36   1.0000      -0.526643       -14.3307
  37   1.0000      -0.493739       -13.4353
  38   1.0000      -0.479473       -13.0471
  39   1.0000      -0.469963       -12.7883
  40   1.0000      -0.467388       -12.7183
  41   1.0000      -0.459675       -12.5084
  42   1.0000      -0.458599       -12.4791
  43   1.0000      -0.425995       -11.5919
  44   1.0000      -0.425582       -11.5807
  45   1.0000      -0.421351       -11.4655
  46   1.0000      -0.418294       -11.3824
  47   1.0000      -0.417501       -11.3608
  48   1.0000      -0.410263       -11.1638
  49   1.0000      -0.397505       -10.8167
  50   1.0000      -0.388700       -10.5771
  51   1.0000      -0.379661       -10.3311
  52   1.0000      -0.369615       -10.0577
  53   1.0000      -0.365783        -9.9534
  54   1.0000      -0.357144        -9.7184
  55   1.0000      -0.352903        -9.6030
  56   1.0000      -0.352361        -9.5882
  57   1.0000      -0.337663        -9.1883
  58   1.0000      -0.336366        -9.1530
  59   1.0000      -0.327981        -8.9248
  60   1.0000      -0.323627        -8.8064
  61   1.0000      -0.323526        -8.8036
  62   1.0000      -0.321986        -8.7617
  63   1.0000      -0.320880        -8.7316
  64   1.0000      -0.317667        -8.6442
  65   1.0000      -0.312966        -8.5162
  66   1.0000      -0.299347        -8.1456
  67   1.0000      -0.272162        -7.4059
  68   1.0000      -0.241177        -6.5628
  69   1.0000      -0.223369        -6.0782
  70   1.0000      -0.198597        -5.4041
  71   0.0000      -0.032650        -0.8885
  72   0.0000       0.000380         0.0103
  73   0.0000       0.020135         0.5479
  74   0.0000       0.023533         0.6404
  75   0.0000       0.024934         0.6785

                 SPIN DOWN ORBITALS
  NO   OCC          E(Eh)            E(eV)
   0   1.0000     -10.215660      -277.9822
   1   1.0000     -10.205229      -277.6984
   2   1.0000     -10.201839      -277.6062
   3   1.0000     -10.201085      -277.5856
   4   1.0000     -10.193818      -277.3879
   5   1.0000     -10.192840      -277.3613
   6   1.0000     -10.192221      -277.3444
   7   1.0000     -10.191551      -277.3262
   8   1.0000     -10.188905      -277.2542
   9   1.0000     -10.186310      -277.1836
  10   1.0000     -10.184511      -277.1346
  11   1.0000     -10.182817      -277.0885
  12   1.0000     -10.182188      -277.0714
  13   1.0000     -10.181233      -277.0454
  14   1.0000     -10.180191      -277.0171
  15   1.0000     -10.179459      -276.9972
  16   1.0000     -10.179155      -276.9889
  17   1.0000     -10.174776      -276.8697
  18   1.0000     -10.173312      -276.8299
  19   1.0000      -0.863233       -23.4898
  20   1.0000      -0.810845       -22.0642
  21   1.0000      -0.800281       -21.7767
  22   1.0000      -0.780536       -21.2395
  23   1.0000      -0.775639       -21.1062
  24   1.0000      -0.754355       -20.5270
  25   1.0000      -0.726738       -19.7756
  26   1.0000      -0.722602       -19.6630
  27   1.0000      -0.698951       -19.0194
  28   1.0000      -0.660833       -17.9822
  29   1.0000      -0.633315       -17.2334
  30   1.0000      -0.616872       -16.7859
  31   1.0000      -0.602673       -16.3996
  32   1.0000      -0.579621       -15.7723
  33   1.0000      -0.574062       -15.6210
  34   1.0000      -0.563535       -15.3346
  35   1.0000      -0.556865       -15.1531
  36   1.0000      -0.526631       -14.3304
  37   1.0000      -0.493710       -13.4345
  38   1.0000      -0.478572       -13.0226
  39   1.0000      -0.469959       -12.7882
  40   1.0000      -0.467353       -12.7173
  41   1.0000      -0.459596       -12.5062
  42   1.0000      -0.456311       -12.4169
  43   1.0000      -0.425174       -11.5696
  44   1.0000      -0.423404       -11.5214
  45   1.0000      -0.420795       -11.4504
  46   1.0000      -0.417979       -11.3738
  47   1.0000      -0.415728       -11.3125
  48   1.0000      -0.408164       -11.1067
  49   1.0000      -0.393564       -10.7094
  50   1.0000      -0.386509       -10.5174
  51   1.0000      -0.377260       -10.2658
  52   1.0000      -0.367452        -9.9989
  53   1.0000      -0.364980        -9.9316
  54   1.0000      -0.355443        -9.6721
  55   1.0000      -0.351683        -9.5698
  56   1.0000      -0.351433        -9.5630
  57   1.0000      -0.336726        -9.1628
  58   1.0000      -0.334797        -9.1103
  59   1.0000      -0.327338        -8.9073
  60   1.0000      -0.323311        -8.7977
  61   1.0000      -0.323177        -8.7941
  62   1.0000      -0.321510        -8.7487
  63   1.0000      -0.319973        -8.7069
  64   1.0000      -0.317198        -8.6314
  65   1.0000      -0.309730        -8.4282
  66   1.0000      -0.299346        -8.1456
  67   1.0000      -0.272152        -7.4056
  68   1.0000      -0.241177        -6.5628
  69   1.0000      -0.223368        -6.0782
  70   0.0000      -0.050970        -1.3870
  71   0.0000      -0.032650        -0.8884
  72   0.0000       0.000381         0.0104
  73   0.0000       0.020143         0.5481
  74   0.0000       0.023557         0.6410

MULLIKEN ATOMIC CHARGES AND SPIN POPULATIONS
--------------------------------------------
   0 C :    0.001416   -0.000040
   1 C :   -0.332987   -0.000007
   2 C :    0.510853    0.000001
   3 C :   -0.445012    0.000010
   4 C :    0.423274    0.000049
   5 C :    0.283524    0.000280
   6 C :   -0.243207   -0.000043
   7 H :    0.129594    0.000001
   8 H :    0.114558    0.000001
   9 C :   -0.396132    0.000004
  10 H :    0.145512   -0.000000
  11 H :    0.147354   -0.000000
  12 C :   -0.261182   -0.000002
  13 H :    0.142066    0.000000
  14 H :    0.140522    0.000000
  15 C :   -0.256811   -0.000000
  16 H :    0.140497    0.000000
  17 H :    0.140755    0.000000
  18 C :   -0.508131   -0.000000
  19 H :    0.158197   -0.000000
  20 H :    0.158303   -0.000000
  21 C :   -0.388331    0.000233
  22 H :    0.155893   -0.000007
  23 H :    0.155817   -0.000007
  24 C :   -0.270476    0.001500
  25 H :    0.141423   -0.000073
  26 H :    0.141360   -0.000072
  27 C :   -0.286632   -0.000967
  28 H :    0.142993    0.000055
  29 H :    0.143268    0.000055
  30 C :   -0.282044    0.006442
  31 H :    0.144684   -0.000270
  32 H :    0.144675   -0.000270
  33 C :   -0.302934    0.069494
  34 H :    0.156002   -0.002746
  35 H :    0.155959   -0.002735
  36 C :   -0.223250   -0.073429
  37 H :    0.147144    0.012455
  38 H :    0.147148    0.012357
  39 C :   -0.433233    1.056891
  40 H :    0.165928   -0.039578
  41 H :    0.165927   -0.039577
  42 C :   -0.541322    0.000000
  43 H :    0.180240   -0.000000
  44 H :    0.143389   -0.000000
  45 H :    0.103411   -0.000001
Sum of atomic charges         :    0.0000000

LOEWDIN ATOMIC CHARGES AND SPIN POPULATIONS
-------------------------------------------
   0 C :   -0.030252    0.000002
   1 C :   -0.038255    0.000000
   2 C :   -0.071926   -0.000003
   3 C :   -0.011292    0.000006
   4 C :   -0.075904    0.000019
   5 C :   -0.044319    0.000095
   6 C :   -0.041885    0.000000
   7 H :    0.061271    0.000002
   8 H :    0.054741    0.000001
   9 C :   -0.061298   -0.000000
  10 H :    0.056361   -0.000000
  11 H :    0.056651   -0.000000
  12 C :   -0.084644    0.000000
  13 H :    0.047666    0.000000
  14 H :    0.047186    0.000000
  15 C :   -0.096878    0.000000
  16 H :    0.043157    0.000000
  17 H :    0.043130    0.000000
  18 C :   -0.084691    0.000000
  19 H :    0.036492    0.000000
  20 H :    0.036517    0.000000
  21 C :   -0.048339    0.000231
  22 H :    0.061599    0.000001
  23 H :    0.061591    0.000001
  24 C :   -0.082990    0.001240
  25 H :    0.046449   -0.000011
  26 H :    0.046476   -0.000011
  27 C :   -0.087161    0.001382
  28 H :    0.047161    0.000057
  29 H :    0.047170    0.000058
  30 C :   -0.091380    0.007210
  31 H :    0.046183    0.000012
  32 H :    0.046205    0.000012
  33 C :   -0.086548    0.058640
  34 H :    0.046780    0.000015
  35 H :    0.046781    0.000011
  36 C :   -0.112041    0.012542
  37 H :    0.049596    0.010052
  38 H :    0.049558    0.009968
  39 C :   -0.053035    0.887104
  40 H :    0.028910    0.005684
  41 H :    0.028921    0.005682
  42 C :   -0.069543   -0.000003
  43 H :    0.048002    0.000000
  44 H :    0.033639    0.000000
  45 H :    0.054187   -0.000000

  Mayer bond orders larger than 0.100000
B(  0-C ,  4-C ) :   0.9165 B(  0-C , 42-C ) :   2.6953 B(  1-C ,  2-C ) :   1.3693
B(  1-C ,  3-C ) :   0.1207 B(  1-C ,  5-C ) :   0.1053 B(  1-C ,  6-C ) :   1.4842
B(  1-C , 45-H ) :   0.9828 B(  2-C ,  3-C ) :   1.4468 B(  2-C ,  4-C ) :   0.1078
B(  2-C ,  9-C ) :   0.8975 B(  3-C ,  4-C ) :   1.4238 B(  3-C ,  7-H ) :   0.9818
B(  4-C ,  5-C ) :   1.3825 B(  4-C ,  6-C ) :   0.1102 B(  5-C ,  6-C ) :   1.4245
B(  5-C , 21-C ) :   0.9452 B(  6-C ,  8-H ) :   0.9786 B(  9-C , 10-H ) :   0.9690
B(  9-C , 11-H ) :   0.9679 B(  9-C , 12-C ) :   1.0204 B( 12-C , 13-H ) :   0.9629
B( 12-C , 14-H ) :   0.9614 B( 12-C , 15-C ) :   0.9841 B( 15-C , 16-H ) :   0.9723
B( 15-C , 17-H ) :   0.9720 B( 15-C , 18-C ) :   0.9561 B( 18-C , 19-H ) :   0.9719
B( 18-C , 20-H ) :   0.9717 B( 18-C , 44-H ) :   0.9685 B( 21-C , 22-H ) :   0.9583
B( 21-C , 23-H ) :   0.9586 B( 21-C , 24-C ) :   1.0028 B( 24-C , 25-H ) :   0.9621
B( 24-C , 26-H ) :   0.9622 B( 24-C , 27-C ) :   0.9742 B( 27-C , 28-H ) :   0.9758
B( 27-C , 29-H ) :   0.9760 B( 27-C , 30-C ) :   0.9706 B( 30-C , 31-H ) :   0.9804
B( 30-C , 32-H ) :   0.9802 B( 30-C , 33-C ) :   0.9563 B( 33-C , 34-H ) :   0.9788
B( 33-C , 35-H ) :   0.9787 B( 33-C , 36-C ) :   0.9365 B( 36-C , 37-H ) :   0.9776
B( 36-C , 38-H ) :   0.9777 B( 36-C , 39-C ) :   0.9745 B( 39-C , 40-H ) :   0.9734
B( 39-C , 41-H ) :   0.9734 B( 42-C , 43-H ) :   0.9840

FINAL SINGLE POINT ENERGY      -739.769090943393

DIPOLE MOMENT
-------------
                                X             Y             Z
Electronic contribution:      4.29723      -7.76494       0.42354
Nuclear contribution   :     -4.60861       7.61746      -0.42547
                        -----------------------------------------
Total Dipole Moment    :     -0.31139      -0.14747      -0.00193
                        -----------------------------------------
Magnitude (a.u.)       :      0.34455
Magnitude (Debye)      :      0.87577

Rotational constants in cm-1:     0.036145     0.002970     0.002760
Rotational constants in MHz :  1083.589681    89.033188    82.745367

CHEMICAL SHIELDING SUMMARY (ppm)  --  Orbital contribution
----------------------------------------------------------

  Nucleus  Element    Isotropic     Anisotropy
  -------  -------  ------------   ------------
      7       H           24.209         12.762
      8       H           24.545         10.965
     10       H           28.932          5.491
     11       H           28.909          5.373
     13       H           29.997          4.564
     14       H           29.965          4.698
     16       H           30.186          6.643
     17       H           30.185          6.666
     19       H           30.724          7.953
     20       H           30.723          7.937
     22       H           28.756          6.157
     23       H           28.759          6.190
     25       H           30.010          4.739
     26       H           30.014          4.710
     28       H           30.219          4.453
     29       H           30.218          4.455
     31       H           30.267          4.335
     32       H           30.265          4.336
     34       H           30.368          4.858
     35       H           30.369          4.853
     37       H           29.387          5.963
     38       H           29.387          5.957
     40       H           26.941          5.554
     41       H           26.943          5.556
     43       H           28.499         10.756
     44       H           30.520         10.237
     45       H           24.497          8.784

                             ****ORCA TERMINATED NORMALLY****
TOTAL RUN TIME: 0 days 1 hours 3 minutes 4 seconds 646 msec
