                         Program Version 5.0.4 -  RELEASE  -
|  1> ! B3LYP EPR-II AUTOAUX
|  2> %pal nprocs 16 end
|  3> *XYZFile 0 2 opt_EPRII.xyz
|  4> %EPRNMR
|  5>         GTENSOR   TRUE
|  6>         NUCLEI    = ALL H {SHIFT, AISO, ADIP, AORB}
|  7>         ORI       GIAO
|  8> END
|  9>
| 10>                          ****END OF INPUT****

CARTESIAN COORDINATES (ANGSTROEM)
---------------------------------
  C      4.264294   -0.089356   -0.046740
  C      0.039858   -0.014240   -0.150042
  C      0.699300   -1.258295   -0.094411
  C      2.100316   -1.245146   -0.062230
  C      2.828460   -0.033154   -0.083076
  C      2.158391    1.217772   -0.137715
  C      0.753184    1.191443   -0.170923
  H      2.659673   -2.173254   -0.020289
  H      0.200137    2.124008   -0.213515
  C     -0.123624   -2.541720   -0.068077
  H     -0.789648   -2.541822   -0.942106
  H     -0.785513   -2.508338    0.808682
  C      0.663034   -3.861928   -0.043977
  H      1.320185   -3.918002   -0.922043
  H      1.316461   -3.888780    0.838180
  C     -0.254014   -5.097940   -0.023936
  H     -0.914094   -5.044986    0.852231
  H     -0.909149   -5.077334   -0.905137
  C      0.526248   -6.423843    0.003025
  H      1.166612   -6.485555    0.890124
  H      1.170617   -6.519369   -0.878153
  C      2.962635    2.509642   -0.157359
  H      3.613732    2.523374    0.726975
  H      3.647896    2.476755   -1.014992
  C      2.156084    3.816732   -0.207141
  H      1.517762    3.828317   -1.100663
  H      1.483853    3.872867    0.659453
  C      3.059389    5.063153   -0.221531
  H      3.704749    5.054040    0.667821
  H      3.731212    5.014967   -1.089777
  C      2.269907    6.383535   -0.262611
  H      1.599303    6.431391    0.606858
  H      1.623728    6.392014   -1.151635
  C      3.169729    7.632084   -0.278137
  H      3.836918    7.596307   -1.148878
  H      3.814741    7.633801    0.609880
  C      2.357702    8.958960   -0.316752
  H      1.714438    8.940884   -1.206718
  H      1.693041    8.979014    0.557274
  C      3.216719   10.187601   -0.333045
  H      3.585931   10.621822    0.591388
  H      3.609281   10.580765   -1.266199
  C      5.483466   -0.138630   -0.017030
  H      6.548053   -0.182846    0.010274
  H     -0.150361   -7.284567    0.018002
  H     -1.048241    0.011713   -0.177434

 Total Charge           Charge          ....    0
 Multiplicity           Mult            ....    2
 Number of Electrons    NEL             ....  141
 Basis Dimension        Dim             ....  512

ORBITAL ENERGIES
----------------
                 SPIN UP ORBITALS
  NO   OCC          E(Eh)            E(eV)
   0   1.0000     -10.216707      -278.0107
   1   1.0000     -10.206197      -277.7247
   2   1.0000     -10.202671      -277.6288
   3   1.0000     -10.202082      -277.6128
   4   1.0000     -10.194064      -277.3946
   5   1.0000     -10.193233      -277.3720
   6   1.0000     -10.192409      -277.3495
   7   1.0000     -10.192022      -277.3390
   8   1.0000     -10.187901      -277.2269
   9   1.0000     -10.187078      -277.2045
  10   1.0000     -10.184141      -277.1246
  11   1.0000     -10.183628      -277.1106
  12   1.0000     -10.181500      -277.0527
  13   1.0000     -10.180991      -277.0389
  14   1.0000     -10.180338      -277.0211
  15   1.0000     -10.180026      -277.0126
  16   1.0000     -10.178203      -276.9630
  17   1.0000     -10.177981      -276.9569
  18   1.0000     -10.171108      -276.7699
  19   1.0000      -0.861227       -23.4352
  20   1.0000      -0.809994       -22.0410
  21   1.0000      -0.800684       -21.7877
  22   1.0000      -0.781614       -21.2688
  23   1.0000      -0.775523       -21.1030
  24   1.0000      -0.756211       -20.5775
  25   1.0000      -0.729881       -19.8611
  26   1.0000      -0.721823       -19.6418
  27   1.0000      -0.702405       -19.1134
  28   1.0000      -0.666510       -18.1367
  29   1.0000      -0.637034       -17.3346
  30   1.0000      -0.617861       -16.8128
  31   1.0000      -0.608678       -16.5630
  32   1.0000      -0.583651       -15.8820
  33   1.0000      -0.577285       -15.7087
  34   1.0000      -0.571727       -15.5575
  35   1.0000      -0.560085       -15.2407
  36   1.0000      -0.527582       -14.3562
  37   1.0000      -0.493530       -13.4296
  38   1.0000      -0.480236       -13.0679
  39   1.0000      -0.470807       -12.8113
  40   1.0000      -0.466928       -12.7058
  41   1.0000      -0.459631       -12.5072
  42   1.0000      -0.459542       -12.5048
  43   1.0000      -0.427233       -11.6256
  44   1.0000      -0.425326       -11.5737
  45   1.0000      -0.420146       -11.4328
  46   1.0000      -0.419594       -11.4177
  47   1.0000      -0.416811       -11.3420
  48   1.0000      -0.410141       -11.1605
  49   1.0000      -0.395928       -10.7737
  50   1.0000      -0.389978       -10.6119
  51   1.0000      -0.379084       -10.3154
  52   1.0000      -0.369135       -10.0447
  53   1.0000      -0.366726        -9.9791
  54   1.0000      -0.356619        -9.7041
  55   1.0000      -0.354352        -9.6424
  56   1.0000      -0.352814        -9.6005
  57   1.0000      -0.339558        -9.2398
  58   1.0000      -0.336275        -9.1505
  59   1.0000      -0.327516        -8.9121
  60   1.0000      -0.325965        -8.8700
  61   1.0000      -0.324379        -8.8268
  62   1.0000      -0.323045        -8.7905
  63   1.0000      -0.319999        -8.7076
  64   1.0000      -0.319684        -8.6990
  65   1.0000      -0.311330        -8.4717
  66   1.0000      -0.298585        -8.1249
  67   1.0000      -0.271452        -7.3866
  68   1.0000      -0.240862        -6.5542
  69   1.0000      -0.223126        -6.0716
  70   1.0000      -0.198297        -5.3959
  71   0.0000      -0.033205        -0.9035
  72   0.0000      -0.000433        -0.0118
  73   0.0000       0.020271         0.5516
  74   0.0000       0.023886         0.6500
  75   0.0000       0.025247         0.6870

                 SPIN DOWN ORBITALS
  NO   OCC          E(Eh)            E(eV)
   0   1.0000     -10.216706      -278.0107
   1   1.0000     -10.206194      -277.7247
   2   1.0000     -10.202671      -277.6288
   3   1.0000     -10.202082      -277.6128
   4   1.0000     -10.194064      -277.3946
   5   1.0000     -10.193233      -277.3720
   6   1.0000     -10.192409      -277.3495
   7   1.0000     -10.192022      -277.3390
   8   1.0000     -10.187901      -277.2269
   9   1.0000     -10.184994      -277.1478
  10   1.0000     -10.183621      -277.1104
  11   1.0000     -10.181500      -277.0527
  12   1.0000     -10.180991      -277.0389
  13   1.0000     -10.179990      -277.0116
  14   1.0000     -10.178790      -276.9790
  15   1.0000     -10.178135      -276.9611
  16   1.0000     -10.177825      -276.9527
  17   1.0000     -10.173307      -276.8298
  18   1.0000     -10.171108      -276.7699
  19   1.0000      -0.861223       -23.4351
  20   1.0000      -0.809578       -22.0297
  21   1.0000      -0.799050       -21.7433
  22   1.0000      -0.779332       -21.2067
  23   1.0000      -0.774533       -21.0761
  24   1.0000      -0.753360       -20.5000
  25   1.0000      -0.726113       -19.7585
  26   1.0000      -0.721812       -19.6415
  27   1.0000      -0.698493       -19.0069
  28   1.0000      -0.660805       -17.9814
  29   1.0000      -0.633807       -17.2468
  30   1.0000      -0.616969       -16.7886
  31   1.0000      -0.603563       -16.4238
  32   1.0000      -0.580977       -15.8092
  33   1.0000      -0.575667       -15.6647
  34   1.0000      -0.565096       -15.3771
  35   1.0000      -0.558533       -15.1985
  36   1.0000      -0.527573       -14.3560
  37   1.0000      -0.493504       -13.4289
  38   1.0000      -0.479349       -13.0438
  39   1.0000      -0.470803       -12.8112
  40   1.0000      -0.466901       -12.7050
  41   1.0000      -0.459494       -12.5035
  42   1.0000      -0.457325       -12.4444
  43   1.0000      -0.425084       -11.5671
  44   1.0000      -0.424573       -11.5532
  45   1.0000      -0.419432       -11.4133
  46   1.0000      -0.419333       -11.4106
  47   1.0000      -0.415448       -11.3049
  48   1.0000      -0.407676       -11.0934
  49   1.0000      -0.392083       -10.6691
  50   1.0000      -0.387686       -10.5495
  51   1.0000      -0.376692       -10.2503
  52   1.0000      -0.367077        -9.9887
  53   1.0000      -0.366008        -9.9596
  54   1.0000      -0.354787        -9.6543
  55   1.0000      -0.353537        -9.6202
  56   1.0000      -0.351404        -9.5622
  57   1.0000      -0.338663        -9.2155
  58   1.0000      -0.334707        -9.1078
  59   1.0000      -0.327040        -8.8992
  60   1.0000      -0.325617        -8.8605
  61   1.0000      -0.323937        -8.8148
  62   1.0000      -0.322600        -8.7784
  63   1.0000      -0.319547        -8.6953
  64   1.0000      -0.318906        -8.6779
  65   1.0000      -0.307783        -8.3752
  66   1.0000      -0.298585        -8.1249
  67   1.0000      -0.271442        -7.3863
  68   1.0000      -0.240862        -6.5542
  69   1.0000      -0.223125        -6.0715
  70   0.0000      -0.050696        -1.3795
  71   0.0000      -0.033204        -0.9035
  72   0.0000      -0.000432        -0.0118
  73   0.0000       0.020280         0.5518
  74   0.0000       0.023917         0.6508

MULLIKEN ATOMIC CHARGES AND SPIN POPULATIONS
--------------------------------------------
   0 C :   -0.004512   -0.000045
   1 C :   -0.331226   -0.000007
   2 C :    0.499433    0.000000
   3 C :   -0.438903    0.000010
   4 C :    0.420442    0.000055
   5 C :    0.275186    0.000275
   6 C :   -0.240961   -0.000044
   7 H :    0.131324    0.000001
   8 H :    0.116394    0.000001
   9 C :   -0.398248    0.000004
  10 H :    0.148055   -0.000000
  11 H :    0.150058   -0.000000
  12 C :   -0.266884   -0.000002
  13 H :    0.145212    0.000000
  14 H :    0.143209    0.000000
  15 C :   -0.265541   -0.000000
  16 H :    0.143500    0.000000
  17 H :    0.143737    0.000000
  18 C :   -0.511036   -0.000000
  19 H :    0.160359   -0.000000
  20 H :    0.160500   -0.000000
  21 C :   -0.390409    0.000249
  22 H :    0.158332   -0.000008
  23 H :    0.158587   -0.000008
  24 C :   -0.277050    0.001514
  25 H :    0.144261   -0.000072
  26 H :    0.144662   -0.000072
  27 C :   -0.292963   -0.000911
  28 H :    0.146233    0.000051
  29 H :    0.146482    0.000051
  30 C :   -0.288658    0.006480
  31 H :    0.147943   -0.000263
  32 H :    0.147903   -0.000262
  33 C :   -0.309272    0.069281
  34 H :    0.159365   -0.002694
  35 H :    0.159340   -0.002684
  36 C :   -0.230848   -0.073538
  37 H :    0.150238    0.011857
  38 H :    0.150238    0.011800
  39 C :   -0.436307    1.057469
  40 H :    0.168328   -0.039242
  41 H :    0.168327   -0.039244
  42 C :   -0.536506    0.000000
  43 H :    0.181587   -0.000000
  44 H :    0.145068   -0.000000
  45 H :    0.105024   -0.000001
Sum of atomic charges         :    0.0000000

LOEWDIN ATOMIC CHARGES AND SPIN POPULATIONS
-------------------------------------------
   0 C :   -0.029100    0.000002
   1 C :   -0.036606    0.000000
   2 C :   -0.069324   -0.000003
   3 C :   -0.010137    0.000006
   4 C :   -0.075275    0.000020
   5 C :   -0.042919    0.000098
   6 C :   -0.039869    0.000000
   7 H :    0.058911    0.000002
   8 H :    0.052318    0.000001
   9 C :   -0.057186   -0.000000
  10 H :    0.053927   -0.000000
  11 H :    0.054282   -0.000000
  12 C :   -0.079710    0.000000
  13 H :    0.045232    0.000000
  14 H :    0.044692    0.000000
  15 C :   -0.091022    0.000000
  16 H :    0.040574    0.000000
  17 H :    0.040541    0.000000
  18 C :   -0.078504    0.000000
  19 H :    0.034131    0.000000
  20 H :    0.034152    0.000000
  21 C :   -0.044224    0.000236
  22 H :    0.059105    0.000001
  23 H :    0.059057    0.000001
  24 C :   -0.078273    0.001254
  25 H :    0.043990   -0.000010
  26 H :    0.044194   -0.000009
  27 C :   -0.082201    0.001407
  28 H :    0.044724    0.000055
  29 H :    0.044721    0.000055
  30 C :   -0.086247    0.007205
  31 H :    0.043740    0.000021
  32 H :    0.043741    0.000021
  33 C :   -0.081239    0.058507
  34 H :    0.044232    0.000094
  35 H :    0.044244    0.000091
  36 C :   -0.105993    0.011371
  37 H :    0.046914    0.009550
  38 H :    0.046892    0.009502
  39 C :   -0.047841    0.887272
  40 H :    0.025772    0.006626
  41 H :    0.025776    0.006625
  42 C :   -0.067934   -0.000003
  43 H :    0.044458    0.000000
  44 H :    0.031396    0.000000
  45 H :    0.051887   -0.000000

  Mayer bond orders larger than 0.100000
B(  0-C ,  4-C ) :   0.9123 B(  0-C , 42-C ) :   2.7016 B(  1-C ,  2-C ) :   1.3713
B(  1-C ,  3-C ) :   0.1187 B(  1-C ,  5-C ) :   0.1018 B(  1-C ,  6-C ) :   1.4829
B(  1-C , 45-H ) :   0.9821 B(  2-C ,  3-C ) :   1.4469 B(  2-C ,  4-C ) :   0.1036
B(  2-C ,  9-C ) :   0.8992 B(  3-C ,  4-C ) :   1.4217 B(  3-C ,  7-H ) :   0.9807
B(  4-C ,  5-C ) :   1.3800 B(  4-C ,  6-C ) :   0.1069 B(  5-C ,  6-C ) :   1.4246
B(  5-C , 21-C ) :   0.9451 B(  6-C ,  8-H ) :   0.9776 B(  9-C , 10-H ) :   0.9691
B(  9-C , 11-H ) :   0.9678 B(  9-C , 12-C ) :   1.0191 B( 12-C , 13-H ) :   0.9639
B( 12-C , 14-H ) :   0.9620 B( 12-C , 15-C ) :   0.9825 B( 15-C , 16-H ) :   0.9729
B( 15-C , 17-H ) :   0.9725 B( 15-C , 18-C ) :   0.9563 B( 18-C , 19-H ) :   0.9720
B( 18-C , 20-H ) :   0.9718 B( 18-C , 44-H ) :   0.9686 B( 21-C , 22-H ) :   0.9582
B( 21-C , 23-H ) :   0.9588 B( 21-C , 24-C ) :   1.0017 B( 24-C , 25-H ) :   0.9629
B( 24-C , 26-H ) :   0.9632 B( 24-C , 27-C ) :   0.9720 B( 27-C , 28-H ) :   0.9765
B( 27-C , 29-H ) :   0.9768 B( 27-C , 30-C ) :   0.9683 B( 30-C , 31-H ) :   0.9809
B( 30-C , 32-H ) :   0.9809 B( 30-C , 33-C ) :   0.9547 B( 33-C , 34-H ) :   0.9792
B( 33-C , 35-H ) :   0.9791 B( 33-C , 36-C ) :   0.9349 B( 36-C , 37-H ) :   0.9782
B( 36-C , 38-H ) :   0.9783 B( 36-C , 39-C ) :   0.9732 B( 39-C , 40-H ) :   0.9737
B( 39-C , 41-H ) :   0.9737 B( 42-C , 43-H ) :   0.9832

FINAL SINGLE POINT ENERGY      -739.770256049640

DIPOLE MOMENT
-------------
                                X             Y             Z
Electronic contribution:      4.29117      -7.80906       0.33606
Nuclear contribution   :     -4.61784       7.66551      -0.33843
                        -----------------------------------------
Total Dipole Moment    :     -0.32668      -0.14354      -0.00237
                        -----------------------------------------
Magnitude (a.u.)       :      0.35683
Magnitude (Debye)      :      0.90699

Rotational constants in cm-1:     0.035987     0.002958     0.002749
Rotational constants in MHz :  1078.855266    88.673583    82.402355

CHEMICAL SHIELDING SUMMARY (ppm)  --  Orbital contribution
----------------------------------------------------------

  Nucleus  Element    Isotropic     Anisotropy
  -------  -------  ------------   ------------
      7       H           24.253         12.832
      8       H           24.578         11.056
     10       H           29.118          5.547
     11       H           29.099          5.405
     13       H           30.191          4.587
     14       H           30.154          4.765
     16       H           30.406          6.687
     17       H           30.402          6.719
     19       H           30.971          8.012
     20       H           30.969          8.002
     22       H           28.946          6.257
     23       H           28.951          6.161
     25       H           30.197          4.770
     26       H           30.215          4.705
     28       H           30.424          4.479
     29       H           30.419          4.481
     31       H           30.475          4.337
     32       H           30.471          4.353
     34       H           30.573          4.875
     35       H           30.574          4.867
     37       H           29.598          5.994
     38       H           29.598          5.985
     40       H           27.073          5.644
     41       H           27.075          5.644
     43       H           28.642         10.808
     44       H           30.760         10.369
     45       H           24.518          8.871

                             ****ORCA TERMINATED NORMALLY****
TOTAL RUN TIME: 0 days 1 hours 3 minutes 42 seconds 164 msec
