                         Program Version 5.0.4 -  RELEASE  -
|  1> ! B3LYP EPR-II OPT
|  2> %pal nprocs 16 end
|  3> *XYZFile 0 2 model.xyz
|  4>
|  5>                          ****END OF INPUT****
 Total Charge           Charge          ....    0
 Multiplicity           Mult            ....    2
 Number of Electrons    NEL             ....  141
FINAL SINGLE POINT ENERGY      -739.769690811428
FINAL SINGLE POINT ENERGY      -739.770791625274
FINAL SINGLE POINT ENERGY      -739.770849318357
FINAL SINGLE POINT ENERGY      -739.770863448604
FINAL SINGLE POINT ENERGY      -739.770865366872
                    ***********************HURRAY********************

CARTESIAN COORDINATES (ANGSTROEM)
---------------------------------
  C      4.264294   -0.089356   -0.046740
  C      0.039858   -0.014240   -0.150042
  C      0.699300   -1.258295   -0.094411
  C      2.100316   -1.245146   -0.062230
  C      2.828460   -0.033154   -0.083076
  C      2.158391    1.217772   -0.137715
  C      0.753184    1.191443   -0.170923
  H      2.659673   -2.173254   -0.020289
  H      0.200137    2.124008   -0.213515
  C     -0.123624   -2.541720   -0.068077
  H     -0.789648   -2.541822   -0.942106
  H     -0.785513   -2.508338    0.808682
  C      0.663034   -3.861928   -0.043977
  H      1.320185   -3.918002   -0.922043
  H      1.316461   -3.888780    0.838180
  C     -0.254014   -5.097940   -0.023936
  H     -0.914094   -5.044986    0.852231
  H     -0.909149   -5.077334   -0.905137
  C      0.526248   -6.423843    0.003025
  H      1.166612   -6.485555    0.890124
  H      1.170617   -6.519369   -0.878153
  C      2.962635    2.509642   -0.157359
  H      3.613732    2.523374    0.726975
  H      3.647896    2.476755   -1.014992
  C      2.156084    3.816732   -0.207141
  H      1.517762    3.828317   -1.100663
  H      1.483853    3.872867    0.659453
  C      3.059389    5.063153   -0.221531
  H      3.704749    5.054040    0.667821
  H      3.731212    5.014967   -1.089777
  C      2.269907    6.383535   -0.262611
  H      1.599303    6.431391    0.606858
  H      1.623728    6.392014   -1.151635
  C      3.169729    7.632084   -0.278137
  H      3.836918    7.596307   -1.148878
  H      3.814741    7.633801    0.609880
  C      2.357702    8.958960   -0.316752
  H      1.714438    8.940884   -1.206718
  H      1.693041    8.979014    0.557274
  C      3.216719   10.187601   -0.333045
  H      3.585931   10.621822    0.591388
  H      3.609281   10.580765   -1.266199
  C      5.483466   -0.138630   -0.017030
  H      6.548053   -0.182846    0.010274
  H     -0.150361   -7.284567    0.018002
  H     -1.048241    0.011713   -0.177434

 Multiplicity           Mult            ....    2
 Number of Electrons    NEL             ....  141
 Basis Dimension        Dim             ....  512

ORBITAL ENERGIES
----------------
                 SPIN UP ORBITALS
  NO   OCC          E(Eh)            E(eV)
   0   1.0000     -10.216692      -278.0103
   1   1.0000     -10.206139      -277.7232
   2   1.0000     -10.202656      -277.6284
   3   1.0000     -10.201983      -277.6101
   4   1.0000     -10.193998      -277.3928
   5   1.0000     -10.193208      -277.3713
   6   1.0000     -10.192324      -277.3472
   7   1.0000     -10.191975      -277.3377
   8   1.0000     -10.187855      -277.2256
   9   1.0000     -10.187058      -277.2039
  10   1.0000     -10.184100      -277.1235
  11   1.0000     -10.183573      -277.1091
  12   1.0000     -10.181442      -277.0511
  13   1.0000     -10.180930      -277.0372
  14   1.0000     -10.180289      -277.0197
  15   1.0000     -10.179968      -277.0110
  16   1.0000     -10.178163      -276.9619
  17   1.0000     -10.177943      -276.9559
  18   1.0000     -10.171060      -276.7686
  19   1.0000      -0.861237       -23.4355
  20   1.0000      -0.809990       -22.0409
  21   1.0000      -0.800680       -21.7876
  22   1.0000      -0.781611       -21.2687
  23   1.0000      -0.775522       -21.1030
  24   1.0000      -0.756211       -20.5775
  25   1.0000      -0.729881       -19.8611
  26   1.0000      -0.721823       -19.6418
  27   1.0000      -0.702406       -19.1134
  28   1.0000      -0.666512       -18.1367
  29   1.0000      -0.637036       -17.3346
  30   1.0000      -0.617865       -16.8130
  31   1.0000      -0.608680       -16.5630
  32   1.0000      -0.583655       -15.8821
  33   1.0000      -0.577285       -15.7087
  34   1.0000      -0.571728       -15.5575
  35   1.0000      -0.560087       -15.2407
  36   1.0000      -0.527588       -14.3564
  37   1.0000      -0.493532       -13.4297
  38   1.0000      -0.480237       -13.0679
  39   1.0000      -0.470803       -12.8112
  40   1.0000      -0.466932       -12.7059
  41   1.0000      -0.459635       -12.5073
  42   1.0000      -0.459545       -12.5049
  43   1.0000      -0.427238       -11.6257
  44   1.0000      -0.425320       -11.5735
  45   1.0000      -0.420139       -11.4326
  46   1.0000      -0.419597       -11.4178
  47   1.0000      -0.416803       -11.3418
  48   1.0000      -0.410136       -11.1604
  49   1.0000      -0.395920       -10.7735
  50   1.0000      -0.389982       -10.6119
  51   1.0000      -0.379083       -10.3154
  52   1.0000      -0.369130       -10.0445
  53   1.0000      -0.366728        -9.9792
  54   1.0000      -0.356622        -9.7042
  55   1.0000      -0.354356        -9.6425
  56   1.0000      -0.352817        -9.6006
  57   1.0000      -0.339562        -9.2400
  58   1.0000      -0.336276        -9.1505
  59   1.0000      -0.327516        -8.9122
  60   1.0000      -0.325964        -8.8699
  61   1.0000      -0.324376        -8.8267
  62   1.0000      -0.323046        -8.7905
  63   1.0000      -0.319994        -8.7075
  64   1.0000      -0.319683        -8.6990
  65   1.0000      -0.311331        -8.4717
  66   1.0000      -0.298586        -8.1250
  67   1.0000      -0.271448        -7.3865
  68   1.0000      -0.240879        -6.5546
  69   1.0000      -0.223144        -6.0721
  70   1.0000      -0.198310        -5.3963
  71   0.0000      -0.033224        -0.9041
  72   0.0000      -0.000452        -0.0123
  73   0.0000       0.020470         0.5570
  74   0.0000       0.024188         0.6582
  75   0.0000       0.025485         0.6935

                 SPIN DOWN ORBITALS
  NO   OCC          E(Eh)            E(eV)
   0   1.0000     -10.216691      -278.0103
   1   1.0000     -10.206136      -277.7231
   2   1.0000     -10.202656      -277.6284
   3   1.0000     -10.201983      -277.6101
   4   1.0000     -10.193998      -277.3928
   5   1.0000     -10.193208      -277.3713
   6   1.0000     -10.192324      -277.3472
   7   1.0000     -10.191975      -277.3377
   8   1.0000     -10.187855      -277.2256
   9   1.0000     -10.184953      -277.1467
  10   1.0000     -10.183567      -277.1089
  11   1.0000     -10.181442      -277.0511
  12   1.0000     -10.180930      -277.0372
  13   1.0000     -10.179931      -277.0100
  14   1.0000     -10.178742      -276.9776
  15   1.0000     -10.178094      -276.9600
  16   1.0000     -10.177788      -276.9517
  17   1.0000     -10.173290      -276.8293
  18   1.0000     -10.171060      -276.7686
  19   1.0000      -0.861234       -23.4354
  20   1.0000      -0.809574       -22.0296
  21   1.0000      -0.799046       -21.7431
  22   1.0000      -0.779329       -21.2066
  23   1.0000      -0.774532       -21.0761
  24   1.0000      -0.753360       -20.5000
  25   1.0000      -0.726113       -19.7585
  26   1.0000      -0.721812       -19.6415
  27   1.0000      -0.698493       -19.0070
  28   1.0000      -0.660807       -17.9815
  29   1.0000      -0.633810       -17.2468
  30   1.0000      -0.616974       -16.7887
  31   1.0000      -0.603566       -16.4239
  32   1.0000      -0.580978       -15.8092
  33   1.0000      -0.575668       -15.6647
  34   1.0000      -0.565100       -15.3772
  35   1.0000      -0.558536       -15.1985
  36   1.0000      -0.527579       -14.3561
  37   1.0000      -0.493506       -13.4290
  38   1.0000      -0.479350       -13.0438
  39   1.0000      -0.470799       -12.8111
  40   1.0000      -0.466906       -12.7051
  41   1.0000      -0.459496       -12.5035
  42   1.0000      -0.457328       -12.4445
  43   1.0000      -0.425079       -11.5670
  44   1.0000      -0.424578       -11.5534
  45   1.0000      -0.419425       -11.4131
  46   1.0000      -0.419336       -11.4107
  47   1.0000      -0.415441       -11.3047
  48   1.0000      -0.407671       -11.0933
  49   1.0000      -0.392076       -10.6689
  50   1.0000      -0.387689       -10.5496
  51   1.0000      -0.376692       -10.2503
  52   1.0000      -0.367072        -9.9885
  53   1.0000      -0.366010        -9.9596
  54   1.0000      -0.354790        -9.6543
  55   1.0000      -0.353541        -9.6203
  56   1.0000      -0.351409        -9.5623
  57   1.0000      -0.338668        -9.2156
  58   1.0000      -0.334708        -9.1079
  59   1.0000      -0.327041        -8.8992
  60   1.0000      -0.325615        -8.8604
  61   1.0000      -0.323936        -8.8147
  62   1.0000      -0.322601        -8.7784
  63   1.0000      -0.319543        -8.6952
  64   1.0000      -0.318907        -8.6779
  65   1.0000      -0.307782        -8.3752
  66   1.0000      -0.298586        -8.1249
  67   1.0000      -0.271438        -7.3862
  68   1.0000      -0.240878        -6.5546
  69   1.0000      -0.223143        -6.0720
  70   0.0000      -0.050713        -1.3800
  71   0.0000      -0.033224        -0.9041
  72   0.0000      -0.000451        -0.0123
  73   0.0000       0.020479         0.5573
  74   0.0000       0.024218         0.6590

MULLIKEN ATOMIC CHARGES AND SPIN POPULATIONS
--------------------------------------------
   0 C :   -0.004024   -0.000044
   1 C :   -0.330801   -0.000006
   2 C :    0.499779   -0.000001
   3 C :   -0.438199    0.000011
   4 C :    0.420433    0.000055
   5 C :    0.275648    0.000274
   6 C :   -0.240388   -0.000044
   7 H :    0.130579    0.000001
   8 H :    0.115545    0.000001
   9 C :   -0.397516    0.000004
  10 H :    0.147552   -0.000000
  11 H :    0.149533   -0.000000
  12 C :   -0.265663   -0.000002
  13 H :    0.144771    0.000000
  14 H :    0.142777    0.000000
  15 C :   -0.264610   -0.000000
  16 H :    0.143089    0.000000
  17 H :    0.143327    0.000000
  18 C :   -0.510031   -0.000000
  19 H :    0.159986   -0.000000
  20 H :    0.160128   -0.000000
  21 C :   -0.389858    0.000249
  22 H :    0.157827   -0.000008
  23 H :    0.158080   -0.000008
  24 C :   -0.275693    0.001513
  25 H :    0.143759   -0.000072
  26 H :    0.144160   -0.000072
  27 C :   -0.292061   -0.000905
  28 H :    0.145746    0.000051
  29 H :    0.145989    0.000051
  30 C :   -0.287678    0.006482
  31 H :    0.147419   -0.000263
  32 H :    0.147379   -0.000263
  33 C :   -0.308007    0.069257
  34 H :    0.158817   -0.002689
  35 H :    0.158793   -0.002681
  36 C :   -0.230258   -0.073595
  37 H :    0.149799    0.011855
  38 H :    0.149802    0.011801
  39 C :   -0.435036    1.057591
  40 H :    0.167781   -0.039269
  41 H :    0.167792   -0.039271
  42 C :   -0.536739    0.000000
  43 H :    0.181277    0.000000
  44 H :    0.144612   -0.000000
  45 H :    0.104383   -0.000001
Sum of atomic charges         :   -0.0000000

LOEWDIN ATOMIC CHARGES AND SPIN POPULATIONS
-------------------------------------------
   0 C :   -0.028989    0.000002
   1 C :   -0.036636    0.000001
   2 C :   -0.069329   -0.000003
   3 C :   -0.010060    0.000007
   4 C :   -0.075281    0.000020
   5 C :   -0.042854    0.000098
   6 C :   -0.039827    0.000000
   7 H :    0.058874    0.000002
   8 H :    0.052270    0.000001
   9 C :   -0.057101   -0.000000
  10 H :    0.053870   -0.000000
  11 H :    0.054223   -0.000000
  12 C :   -0.079622    0.000000
  13 H :    0.045197    0.000000
  14 H :    0.044657    0.000000
  15 C :   -0.090930    0.000000
  16 H :    0.040540    0.000000
  17 H :    0.040507    0.000000
  18 C :   -0.078401    0.000000
  19 H :    0.034089    0.000000
  20 H :    0.034110    0.000000
  21 C :   -0.044156    0.000236
  22 H :    0.059052    0.000001
  23 H :    0.059003    0.000001
  24 C :   -0.078189    0.001254
  25 H :    0.043954   -0.000010
  26 H :    0.044158   -0.000009
  27 C :   -0.082116    0.001407
  28 H :    0.044684    0.000055
  29 H :    0.044680    0.000055
  30 C :   -0.086150    0.007205
  31 H :    0.043698    0.000021
  32 H :    0.043699    0.000021
  33 C :   -0.081139    0.058491
  34 H :    0.044193    0.000095
  35 H :    0.044206    0.000092
  36 C :   -0.105942    0.011367
  37 H :    0.046866    0.009546
  38 H :    0.046843    0.009500
  39 C :   -0.047763    0.887307
  40 H :    0.025734    0.006622
  41 H :    0.025739    0.006621
  42 C :   -0.067983   -0.000003
  43 H :    0.044431    0.000000
  44 H :    0.031349    0.000000
  45 H :    0.051842   -0.000000

  Mayer bond orders larger than 0.100000
B(  0-C ,  4-C ) :   0.9118 B(  0-C , 42-C ) :   2.7017 B(  1-C ,  2-C ) :   1.3713
B(  1-C ,  3-C ) :   0.1187 B(  1-C ,  5-C ) :   0.1018 B(  1-C ,  6-C ) :   1.4835
B(  1-C , 45-H ) :   0.9822 B(  2-C ,  3-C ) :   1.4470 B(  2-C ,  4-C ) :   0.1035
B(  2-C ,  9-C ) :   0.8993 B(  3-C ,  4-C ) :   1.4223 B(  3-C ,  7-H ) :   0.9808
B(  4-C ,  5-C ) :   1.3799 B(  4-C ,  6-C ) :   0.1067 B(  5-C ,  6-C ) :   1.4247
B(  5-C , 21-C ) :   0.9449 B(  6-C ,  8-H ) :   0.9776 B(  9-C , 10-H ) :   0.9693
B(  9-C , 11-H ) :   0.9679 B(  9-C , 12-C ) :   1.0190 B( 12-C , 13-H ) :   0.9639
B( 12-C , 14-H ) :   0.9620 B( 12-C , 15-C ) :   0.9825 B( 15-C , 16-H ) :   0.9730
B( 15-C , 17-H ) :   0.9726 B( 15-C , 18-C ) :   0.9565 B( 18-C , 19-H ) :   0.9721
B( 18-C , 20-H ) :   0.9719 B( 18-C , 44-H ) :   0.9687 B( 21-C , 22-H ) :   0.9584
B( 21-C , 23-H ) :   0.9589 B( 21-C , 24-C ) :   1.0018 B( 24-C , 25-H ) :   0.9629
B( 24-C , 26-H ) :   0.9632 B( 24-C , 27-C ) :   0.9721 B( 27-C , 28-H ) :   0.9765
B( 27-C , 29-H ) :   0.9768 B( 27-C , 30-C ) :   0.9685 B( 30-C , 31-H ) :   0.9809
B( 30-C , 32-H ) :   0.9809 B( 30-C , 33-C ) :   0.9549 B( 33-C , 34-H ) :   0.9792
B( 33-C , 35-H ) :   0.9791 B( 33-C , 36-C ) :   0.9351 B( 36-C , 37-H ) :   0.9781
B( 36-C , 38-H ) :   0.9782 B( 36-C , 39-C ) :   0.9737 B( 39-C , 40-H ) :   0.9738
B( 39-C , 41-H ) :   0.9738 B( 42-C , 43-H ) :   0.9833

FINAL SINGLE POINT ENERGY      -739.770865961164

DIPOLE MOMENT
-------------
                                X             Y             Z
Electronic contribution:      4.29147      -7.80919       0.33610
Nuclear contribution   :     -4.61784       7.66551      -0.33843
                        -----------------------------------------
Total Dipole Moment    :     -0.32637      -0.14368      -0.00234
                        -----------------------------------------
Magnitude (a.u.)       :      0.35661
Magnitude (Debye)      :      0.90642

Rotational constants in cm-1:     0.035987     0.002958     0.002749
Rotational constants in MHz :  1078.855266    88.673583    82.402355

                             ****ORCA TERMINATED NORMALLY****
TOTAL RUN TIME: 0 days 0 hours 9 minutes 33 seconds 433 msec
