                         Program Version 5.0.4 -  RELEASE  -
|  1> ! B3LYP cc-pVDZ OPT
|  2> %pal nprocs 16 end
|  3> *XYZFile 0 2 model.xyz
|  4>
|  5>                          ****END OF INPUT****
 Total Charge           Charge          ....    0
 Multiplicity           Mult            ....    2
 Number of Electrons    NEL             ....  141
FINAL SINGLE POINT ENERGY      -739.678607594055
FINAL SINGLE POINT ENERGY      -739.685279109562
FINAL SINGLE POINT ENERGY      -739.688295764440
FINAL SINGLE POINT ENERGY      -739.689307215527
FINAL SINGLE POINT ENERGY      -739.689652666385
FINAL SINGLE POINT ENERGY      -739.689728937198
FINAL SINGLE POINT ENERGY      -739.689744630561
FINAL SINGLE POINT ENERGY      -739.689748677175
                    ***********************HURRAY********************

CARTESIAN COORDINATES (ANGSTROEM)
---------------------------------
  C      4.260893   -0.079127   -0.043591
  C      0.045387   -0.014079   -0.133807
  C      0.704757   -1.253015   -0.085632
  C      2.101931   -1.235147   -0.057350
  C      2.827985   -0.025998   -0.075534
  C      2.154195    1.220084   -0.123807
  C      0.753332    1.188758   -0.152097
  H      2.668495   -2.165884   -0.020281
  H      0.193946    2.124579   -0.189644
  C     -0.111949   -2.534903   -0.064556
  H     -0.786166   -2.529706   -0.941570
  H     -0.783040   -2.503561    0.814548
  C      0.667170   -3.852699   -0.045898
  H      1.334018   -3.903925   -0.926359
  H      1.326150   -3.884500    0.841308
  C     -0.246311   -5.084124   -0.035413
  H     -0.916771   -5.033046    0.842757
  H     -0.906915   -5.055142   -0.922002
  C      0.524988   -6.406261   -0.014444
  H      1.168051   -6.480501    0.879526
  H      1.177898   -6.502965   -0.899066
  C      2.952208    2.510100   -0.142411
  H      3.610046    2.523794    0.746200
  H      3.648976    2.474747   -1.000122
  C      2.153064    3.815083   -0.196314
  H      1.507351    3.823318   -1.093673
  H      1.473136    3.874674    0.673437
  C      3.051950    5.057494   -0.215340
  H      3.705089    5.050199    0.677686
  H      3.731774    5.003740   -1.086612
  C      2.270402    6.375297   -0.262074
  H      1.591515    6.428490    0.610416
  H      1.615926    6.380765   -1.154594
  C      3.165360    7.619459   -0.283638
  H      3.840573    7.577327   -1.158008
  H      3.819142    7.623303    0.607847
  C      2.361317    8.944123   -0.328166
  H      1.709747    8.920359   -1.221882
  H      1.689242    8.967418    0.550198
  C      3.214355   10.168422   -0.351043
  H      3.591753   10.606491    0.577387
  H      3.614830   10.555345   -1.292458
  C      5.475492   -0.133120   -0.017706
  H      6.546487   -0.180814    0.006549
  H     -0.157012   -7.272012   -0.007233
  H     -1.048373    0.011018   -0.157638

 Multiplicity           Mult            ....    2
 Number of Electrons    NEL             ....  141
 Basis Dimension        Dim             ....  401

ORBITAL ENERGIES
----------------
                 SPIN UP ORBITALS
  NO   OCC          E(Eh)            E(eV)
   0   1.0000     -10.205506      -277.7059
   1   1.0000     -10.195916      -277.4450
   2   1.0000     -10.192391      -277.3491
   3   1.0000     -10.187874      -277.2262
   4   1.0000     -10.186985      -277.2019
   5   1.0000     -10.186640      -277.1926
   6   1.0000     -10.185658      -277.1658
   7   1.0000     -10.185349      -277.1574
   8   1.0000     -10.184342      -277.1300
   9   1.0000     -10.183739      -277.1136
  10   1.0000     -10.183576      -277.1092
  11   1.0000     -10.182248      -277.0731
  12   1.0000     -10.181582      -277.0549
  13   1.0000     -10.181533      -277.0536
  14   1.0000     -10.181167      -277.0436
  15   1.0000     -10.180802      -277.0337
  16   1.0000     -10.179147      -276.9887
  17   1.0000     -10.178867      -276.9810
  18   1.0000     -10.175841      -276.8987
  19   1.0000      -0.863861       -23.5068
  20   1.0000      -0.813308       -22.1312
  21   1.0000      -0.804049       -21.8793
  22   1.0000      -0.784789       -21.3552
  23   1.0000      -0.776711       -21.1354
  24   1.0000      -0.758524       -20.6405
  25   1.0000      -0.732343       -19.9281
  26   1.0000      -0.721468       -19.6321
  27   1.0000      -0.704440       -19.1688
  28   1.0000      -0.668036       -18.1782
  29   1.0000      -0.637546       -17.3485
  30   1.0000      -0.618013       -16.8170
  31   1.0000      -0.608592       -16.5606
  32   1.0000      -0.583030       -15.8651
  33   1.0000      -0.576667       -15.6919
  34   1.0000      -0.570712       -15.5299
  35   1.0000      -0.559234       -15.2175
  36   1.0000      -0.525422       -14.2974
  37   1.0000      -0.493451       -13.4275
  38   1.0000      -0.479961       -13.0604
  39   1.0000      -0.470456       -12.8017
  40   1.0000      -0.467810       -12.7298
  41   1.0000      -0.459714       -12.5095
  42   1.0000      -0.458539       -12.4775
  43   1.0000      -0.426401       -11.6030
  44   1.0000      -0.425793       -11.5864
  45   1.0000      -0.422135       -11.4869
  46   1.0000      -0.418741       -11.3945
  47   1.0000      -0.418443       -11.3864
  48   1.0000      -0.410936       -11.1822
  49   1.0000      -0.399154       -10.8615
  50   1.0000      -0.388615       -10.5748
  51   1.0000      -0.380503       -10.3540
  52   1.0000      -0.370858       -10.0916
  53   1.0000      -0.365921        -9.9572
  54   1.0000      -0.357939        -9.7400
  55   1.0000      -0.353534        -9.6202
  56   1.0000      -0.352433        -9.5902
  57   1.0000      -0.337636        -9.1875
  58   1.0000      -0.337102        -9.1730
  59   1.0000      -0.328950        -8.9512
  60   1.0000      -0.324597        -8.8327
  61   1.0000      -0.324250        -8.8233
  62   1.0000      -0.322582        -8.7779
  63   1.0000      -0.322196        -8.7674
  64   1.0000      -0.318717        -8.6727
  65   1.0000      -0.314482        -8.5575
  66   1.0000      -0.298601        -8.1253
  67   1.0000      -0.270440        -7.3590
  68   1.0000      -0.241014        -6.5583
  69   1.0000      -0.222642        -6.0584
  70   1.0000      -0.198485        -5.4010
  71   0.0000      -0.030221        -0.8224
  72   0.0000       0.002345         0.0638
  73   0.0000       0.049383         1.3438
  74   0.0000       0.061355         1.6696
  75   0.0000       0.062343         1.6964

                 SPIN DOWN ORBITALS
  NO   OCC          E(Eh)            E(eV)
   0   1.0000     -10.205506      -277.7059
   1   1.0000     -10.195913      -277.4449
   2   1.0000     -10.192391      -277.3491
   3   1.0000     -10.187874      -277.2262
   4   1.0000     -10.186985      -277.2019
   5   1.0000     -10.186640      -277.1926
   6   1.0000     -10.185349      -277.1574
   7   1.0000     -10.184631      -277.1379
   8   1.0000     -10.184342      -277.1300
   9   1.0000     -10.183570      -277.1090
  10   1.0000     -10.182248      -277.0731
  11   1.0000     -10.181582      -277.0549
  12   1.0000     -10.181533      -277.0536
  13   1.0000     -10.180767      -277.0328
  14   1.0000     -10.179601      -277.0010
  15   1.0000     -10.179103      -276.9875
  16   1.0000     -10.178688      -276.9762
  17   1.0000     -10.175841      -276.8987
  18   1.0000     -10.171588      -276.7830
  19   1.0000      -0.863857       -23.5067
  20   1.0000      -0.812833       -22.1183
  21   1.0000      -0.802468       -21.8363
  22   1.0000      -0.782411       -21.2905
  23   1.0000      -0.775716       -21.1083
  24   1.0000      -0.755746       -20.5649
  25   1.0000      -0.728525       -19.8242
  26   1.0000      -0.721467       -19.6321
  27   1.0000      -0.700483       -19.0611
  28   1.0000      -0.662292       -18.0219
  29   1.0000      -0.634215       -17.2579
  30   1.0000      -0.617131       -16.7930
  31   1.0000      -0.603524       -16.4227
  32   1.0000      -0.580348       -15.7921
  33   1.0000      -0.575217       -15.6524
  34   1.0000      -0.563796       -15.3417
  35   1.0000      -0.557148       -15.1608
  36   1.0000      -0.525409       -14.2971
  37   1.0000      -0.493420       -13.4267
  38   1.0000      -0.479104       -13.0371
  39   1.0000      -0.470452       -12.8016
  40   1.0000      -0.467768       -12.7286
  41   1.0000      -0.459636       -12.5073
  42   1.0000      -0.456310       -12.4168
  43   1.0000      -0.425807       -11.5868
  44   1.0000      -0.423264       -11.5176
  45   1.0000      -0.421797       -11.4777
  46   1.0000      -0.418136       -11.3780
  47   1.0000      -0.416639       -11.3373
  48   1.0000      -0.409105       -11.1323
  49   1.0000      -0.395228       -10.7547
  50   1.0000      -0.386395       -10.5144
  51   1.0000      -0.378076       -10.2880
  52   1.0000      -0.368647       -10.0314
  53   1.0000      -0.365103        -9.9350
  54   1.0000      -0.356260        -9.6943
  55   1.0000      -0.352050        -9.5798
  56   1.0000      -0.351683        -9.5698
  57   1.0000      -0.336691        -9.1618
  58   1.0000      -0.335552        -9.1308
  59   1.0000      -0.328144        -8.9293
  60   1.0000      -0.324303        -8.8247
  61   1.0000      -0.323989        -8.8162
  62   1.0000      -0.322066        -8.7639
  63   1.0000      -0.321180        -8.7397
  64   1.0000      -0.318214        -8.6590
  65   1.0000      -0.311490        -8.4761
  66   1.0000      -0.298600        -8.1253
  67   1.0000      -0.270431        -7.3588
  68   1.0000      -0.241013        -6.5583
  69   1.0000      -0.222641        -6.0584
  70   0.0000      -0.044685        -1.2159
  71   0.0000      -0.030221        -0.8223
  72   0.0000       0.002346         0.0638
  73   0.0000       0.049386         1.3439
  74   0.0000       0.061589         1.6759

MULLIKEN ATOMIC CHARGES AND SPIN POPULATIONS
--------------------------------------------
   0 C :    0.620804    0.000003
   1 C :    0.029175    0.000002
   2 C :   -0.026003   -0.000005
   3 C :    0.030332    0.000008
   4 C :   -0.060268    0.000010
   5 C :   -0.073251    0.000104
   6 C :    0.023583   -0.000008
   7 H :   -0.055412    0.000003
   8 H :   -0.044434   -0.000000
   9 C :    0.033851    0.000000
  10 H :    0.024089   -0.000000
  11 H :    0.025160   -0.000000
  12 C :   -0.039034    0.000000
  13 H :    0.016310   -0.000000
  14 H :    0.017191   -0.000000
  15 C :   -0.024757    0.000000
  16 H :    0.004810    0.000000
  17 H :    0.004849    0.000000
  18 C :    0.001769   -0.000000
  19 H :    0.017235    0.000000
  20 H :    0.017339    0.000000
  21 C :    0.048212    0.000270
  22 H :    0.030516   -0.000007
  23 H :    0.030426   -0.000007
  24 C :   -0.033383    0.001328
  25 H :    0.013841   -0.000040
  26 H :    0.013694   -0.000040
  27 C :    0.013763    0.000818
  28 H :    0.003113   -0.000025
  29 H :    0.003137   -0.000024
  30 C :   -0.005277    0.010064
  31 H :    0.001041   -0.000241
  32 H :    0.001032   -0.000243
  33 C :    0.000348    0.049525
  34 H :    0.003365    0.000549
  35 H :    0.003385    0.000556
  36 C :   -0.000838   -0.065395
  37 H :    0.010122    0.013424
  38 H :    0.010141    0.013325
  39 C :   -0.068066    1.056679
  40 H :    0.024613   -0.040318
  41 H :    0.024608   -0.040313
  42 C :   -0.595268   -0.000004
  43 H :   -0.031908    0.000000
  44 H :    0.012351    0.000000
  45 H :   -0.056306   -0.000000
Sum of atomic charges         :   -0.0000000

LOEWDIN ATOMIC CHARGES AND SPIN POPULATIONS
-------------------------------------------
   0 C :   -0.001172    0.000002
   1 C :   -0.018351    0.000001
   2 C :   -0.027307   -0.000003
   3 C :   -0.005862    0.000008
   4 C :   -0.056863    0.000021
   5 C :   -0.005999    0.000095
   6 C :   -0.029460    0.000000
   7 H :    0.027561    0.000002
   8 H :    0.025637    0.000002
   9 C :   -0.035716   -0.000000
  10 H :    0.034754   -0.000000
  11 H :    0.035129   -0.000000
  12 C :   -0.044015    0.000000
  13 H :    0.024821    0.000000
  14 H :    0.024746    0.000000
  15 C :   -0.047549    0.000000
  16 H :    0.023480    0.000000
  17 H :    0.023486    0.000000
  18 C :   -0.067399    0.000000
  19 H :    0.025314    0.000000
  20 H :    0.025350    0.000000
  21 C :   -0.034754    0.000246
  22 H :    0.038715   -0.000000
  23 H :    0.038663   -0.000000
  24 C :   -0.042360    0.001194
  25 H :    0.023465    0.000001
  26 H :    0.023454    0.000001
  27 C :   -0.039242    0.001495
  28 H :    0.023078    0.000030
  29 H :    0.023097    0.000031
  30 C :   -0.043329    0.007241
  31 H :    0.021857    0.000084
  32 H :    0.021870    0.000083
  33 C :   -0.037344    0.050447
  34 H :    0.021860    0.001102
  35 H :    0.021861    0.001101
  36 C :   -0.068297    0.010492
  37 H :    0.029171    0.010218
  38 H :    0.029157    0.010136
  39 C :   -0.015931    0.898152
  40 H :    0.009601    0.003911
  41 H :    0.009602    0.003910
  42 C :   -0.057296   -0.000003
  43 H :    0.021365   -0.000000
  44 H :    0.027309    0.000000
  45 H :    0.023843   -0.000000

  Mayer bond orders larger than 0.100000
B(  0-C ,  4-C ) :   0.9080 B(  0-C , 42-C ) :   2.1398 B(  1-C ,  2-C ) :   1.4217
B(  1-C ,  6-C ) :   1.4310 B(  1-C , 45-H ) :   0.9332 B(  2-C ,  3-C ) :   1.4264
B(  2-C ,  9-C ) :   1.0448 B(  3-C ,  4-C ) :   1.3924 B(  3-C ,  7-H ) :   0.9277
B(  4-C ,  5-C ) :   1.4094 B(  5-C ,  6-C ) :   1.4414 B(  5-C , 21-C ) :   1.0888
B(  6-C ,  8-H ) :   0.9184 B(  9-C , 10-H ) :   0.9145 B(  9-C , 11-H ) :   0.9138
B(  9-C , 12-C ) :   1.1039 B( 12-C , 13-H ) :   0.9312 B( 12-C , 14-H ) :   0.9302
B( 12-C , 15-C ) :   1.0751 B( 15-C , 16-H ) :   0.9414 B( 15-C , 17-H ) :   0.9413
B( 15-C , 18-C ) :   1.1057 B( 18-C , 19-H ) :   0.9665 B( 18-C , 20-H ) :   0.9666
B( 18-C , 44-H ) :   0.9621 B( 21-C , 22-H ) :   0.8985 B( 21-C , 23-H ) :   0.8987
B( 21-C , 24-C ) :   1.0999 B( 24-C , 25-H ) :   0.9274 B( 24-C , 26-H ) :   0.9275
B( 24-C , 27-C ) :   1.0780 B( 27-C , 28-H ) :   0.9340 B( 27-C , 29-H ) :   0.9340
B( 27-C , 30-C ) :   1.0777 B( 30-C , 31-H ) :   0.9358 B( 30-C , 32-H ) :   0.9357
B( 30-C , 33-C ) :   1.0780 B( 33-C , 34-H ) :   0.9401 B( 33-C , 35-H ) :   0.9401
B( 33-C , 36-C ) :   1.0485 B( 36-C , 37-H ) :   0.9358 B( 36-C , 38-H ) :   0.9359
B( 36-C , 39-C ) :   1.1364 B( 39-C , 40-H ) :   0.9649 B( 39-C , 41-H ) :   0.9648
B( 42-C , 43-H ) :   1.1171

FINAL SINGLE POINT ENERGY      -739.689749685996

DIPOLE MOMENT
-------------
                                X             Y             Z
Electronic contribution:      4.33874      -7.76063       0.42500
Nuclear contribution   :     -4.60861       7.61746      -0.42547
                        -----------------------------------------
Total Dipole Moment    :     -0.26987      -0.14316      -0.00046
                        -----------------------------------------
Magnitude (a.u.)       :      0.30549
Magnitude (Debye)      :      0.77650

Rotational constants in cm-1:     0.036145     0.002970     0.002760
Rotational constants in MHz :  1083.589681    89.033188    82.745367

                             ****ORCA TERMINATED NORMALLY****
TOTAL RUN TIME: 0 days 0 hours 12 minutes 26 seconds 462 msec
