                         Program Version 5.0.4 -  RELEASE  -
|  1> ! B3LYP cc-pVDZ OPT
|  2> %pal nprocs 16 end
|  3> *XYZFile 0 2 model.xyz
|  4>
|  5>                          ****END OF INPUT****
 Total Charge           Charge          ....    0
 Multiplicity           Mult            ....    2
 Number of Electrons    NEL             ....  141
FINAL SINGLE POINT ENERGY      -739.689749681580
                    ***********************HURRAY********************

CARTESIAN COORDINATES (ANGSTROEM)
---------------------------------
  C      4.260858   -0.079059   -0.044003
  C      0.045450   -0.014090   -0.134842
  C      0.704771   -1.253031   -0.086291
  C      2.101954   -1.235180   -0.057796
  C      2.827944   -0.025995   -0.076106
  C      2.154189    1.220083   -0.124789
  C      0.753308    1.188798   -0.153319
  H      2.668497   -2.165912   -0.020459
  H      0.193918    2.124593   -0.191201
  C     -0.111958   -2.534895   -0.065106
  H     -0.785744   -2.530067   -0.942454
  H     -0.783440   -2.503205    0.813682
  C      0.667159   -3.852682   -0.045539
  H      1.334359   -3.904332   -0.925707
  H      1.325797   -3.884054    0.841939
  C     -0.246306   -5.084114   -0.034816
  H     -0.917017   -5.032681    0.843142
  H     -0.906655   -5.055516   -0.921607
  C      0.525018   -6.406223   -0.013061
  H      1.167844   -6.480056    0.881113
  H      1.178165   -6.503305   -0.897466
  C      2.952249    2.510065   -0.143621
  H      3.610531    2.523573    0.744656
  H      3.648581    2.474855   -1.001696
  C      2.153089    3.815066   -0.196858
  H      1.507145    3.823673   -1.094046
  H      1.473378    3.874270    0.673093
  C      3.051924    5.057517   -0.215562
  H      3.705029    5.049994    0.677487
  H      3.731779    5.004054   -1.086825
  C      2.270280    6.375265   -0.261870
  H      1.591532    6.428197    0.610746
  H      1.615679    6.380969   -1.154296
  C      3.165182    7.619488   -0.283178
  H      3.840345    7.577562   -1.157596
  H      3.818996    7.623060    0.608287
  C      2.361207    8.944210   -0.327269
  H      1.709407    8.920675   -1.220825
  H      1.689330    8.967401    0.551250
  C      3.214261   10.168439   -0.350108
  H      3.592496   10.605925    0.578245
  H      3.615223   10.555065   -1.291427
  C      5.475459   -0.132927   -0.017936
  H      6.546452   -0.180592    0.006458
  H     -0.156964   -7.271987   -0.005648
  H     -1.048305    0.010962   -0.158875

 Multiplicity           Mult            ....    2
 Number of Electrons    NEL             ....  141
 Basis Dimension        Dim             ....  401

ORBITAL ENERGIES
----------------
                 SPIN UP ORBITALS
  NO   OCC          E(Eh)            E(eV)
   0   1.0000     -10.205506      -277.7059
   1   1.0000     -10.195919      -277.4451
   2   1.0000     -10.192392      -277.3491
   3   1.0000     -10.187876      -277.2262
   4   1.0000     -10.186983      -277.2019
   5   1.0000     -10.186642      -277.1926
   6   1.0000     -10.185654      -277.1657
   7   1.0000     -10.185350      -277.1575
   8   1.0000     -10.184347      -277.1302
   9   1.0000     -10.183739      -277.1136
  10   1.0000     -10.183576      -277.1092
  11   1.0000     -10.182249      -277.0731
  12   1.0000     -10.181583      -277.0550
  13   1.0000     -10.181531      -277.0535
  14   1.0000     -10.181173      -277.0438
  15   1.0000     -10.180803      -277.0337
  16   1.0000     -10.179150      -276.9888
  17   1.0000     -10.178871      -276.9812
  18   1.0000     -10.175842      -276.8987
  19   1.0000      -0.863861       -23.5068
  20   1.0000      -0.813310       -22.1313
  21   1.0000      -0.804052       -21.8794
  22   1.0000      -0.784792       -21.3553
  23   1.0000      -0.776711       -21.1354
  24   1.0000      -0.758528       -20.6406
  25   1.0000      -0.732348       -19.9282
  26   1.0000      -0.721467       -19.6321
  27   1.0000      -0.704442       -19.1689
  28   1.0000      -0.668039       -18.1783
  29   1.0000      -0.637548       -17.3486
  30   1.0000      -0.618010       -16.8169
  31   1.0000      -0.608594       -16.5607
  32   1.0000      -0.583033       -15.8651
  33   1.0000      -0.576669       -15.6920
  34   1.0000      -0.570717       -15.5300
  35   1.0000      -0.559237       -15.2176
  36   1.0000      -0.525420       -14.2974
  37   1.0000      -0.493452       -13.4275
  38   1.0000      -0.479964       -13.0605
  39   1.0000      -0.470457       -12.8018
  40   1.0000      -0.467809       -12.7297
  41   1.0000      -0.459713       -12.5094
  42   1.0000      -0.458538       -12.4774
  43   1.0000      -0.426407       -11.6031
  44   1.0000      -0.425792       -11.5864
  45   1.0000      -0.422138       -11.4870
  46   1.0000      -0.418739       -11.3945
  47   1.0000      -0.418446       -11.3865
  48   1.0000      -0.410939       -11.1822
  49   1.0000      -0.399165       -10.8618
  50   1.0000      -0.388611       -10.5746
  51   1.0000      -0.380509       -10.3542
  52   1.0000      -0.370858       -10.0916
  53   1.0000      -0.365919        -9.9572
  54   1.0000      -0.357949        -9.7403
  55   1.0000      -0.353530        -9.6200
  56   1.0000      -0.352432        -9.5902
  57   1.0000      -0.337636        -9.1875
  58   1.0000      -0.337097        -9.1729
  59   1.0000      -0.328953        -8.9513
  60   1.0000      -0.324598        -8.8328
  61   1.0000      -0.324251        -8.8233
  62   1.0000      -0.322582        -8.7779
  63   1.0000      -0.322199        -8.7675
  64   1.0000      -0.318720        -8.6728
  65   1.0000      -0.314492        -8.5578
  66   1.0000      -0.298600        -8.1253
  67   1.0000      -0.270438        -7.3590
  68   1.0000      -0.241015        -6.5584
  69   1.0000      -0.222642        -6.0584
  70   1.0000      -0.198496        -5.4013
  71   0.0000      -0.030218        -0.8223
  72   0.0000       0.002338         0.0636
  73   0.0000       0.049383         1.3438
  74   0.0000       0.061354         1.6695
  75   0.0000       0.062343         1.6964

                 SPIN DOWN ORBITALS
  NO   OCC          E(Eh)            E(eV)
   0   1.0000     -10.205505      -277.7059
   1   1.0000     -10.195917      -277.4450
   2   1.0000     -10.192392      -277.3491
   3   1.0000     -10.187876      -277.2262
   4   1.0000     -10.186983      -277.2019
   5   1.0000     -10.186642      -277.1926
   6   1.0000     -10.185349      -277.1575
   7   1.0000     -10.184630      -277.1379
   8   1.0000     -10.184347      -277.1302
   9   1.0000     -10.183570      -277.1090
  10   1.0000     -10.182249      -277.0731
  11   1.0000     -10.181583      -277.0550
  12   1.0000     -10.181531      -277.0535
  13   1.0000     -10.180768      -277.0328
  14   1.0000     -10.179607      -277.0012
  15   1.0000     -10.179106      -276.9876
  16   1.0000     -10.178691      -276.9763
  17   1.0000     -10.175842      -276.8987
  18   1.0000     -10.171584      -276.7829
  19   1.0000      -0.863857       -23.5068
  20   1.0000      -0.812836       -22.1184
  21   1.0000      -0.802471       -21.8363
  22   1.0000      -0.782413       -21.2905
  23   1.0000      -0.775716       -21.1083
  24   1.0000      -0.755750       -20.5650
  25   1.0000      -0.728530       -19.8243
  26   1.0000      -0.721466       -19.6321
  27   1.0000      -0.700486       -19.0612
  28   1.0000      -0.662295       -18.0220
  29   1.0000      -0.634218       -17.2579
  30   1.0000      -0.617129       -16.7929
  31   1.0000      -0.603524       -16.4227
  32   1.0000      -0.580348       -15.7921
  33   1.0000      -0.575219       -15.6525
  34   1.0000      -0.563803       -15.3419
  35   1.0000      -0.557155       -15.1610
  36   1.0000      -0.525407       -14.2971
  37   1.0000      -0.493421       -13.4267
  38   1.0000      -0.479107       -13.0372
  39   1.0000      -0.470453       -12.8017
  40   1.0000      -0.467766       -12.7286
  41   1.0000      -0.459635       -12.5073
  42   1.0000      -0.456309       -12.4168
  43   1.0000      -0.425813       -11.5870
  44   1.0000      -0.423263       -11.5176
  45   1.0000      -0.421800       -11.4778
  46   1.0000      -0.418137       -11.3781
  47   1.0000      -0.416640       -11.3374
  48   1.0000      -0.409106       -11.1323
  49   1.0000      -0.395235       -10.7549
  50   1.0000      -0.386391       -10.5142
  51   1.0000      -0.378081       -10.2881
  52   1.0000      -0.368648       -10.0314
  53   1.0000      -0.365101        -9.9349
  54   1.0000      -0.356270        -9.6946
  55   1.0000      -0.352046        -9.5797
  56   1.0000      -0.351682        -9.5698
  57   1.0000      -0.336690        -9.1618
  58   1.0000      -0.335548        -9.1307
  59   1.0000      -0.328146        -8.9293
  60   1.0000      -0.324304        -8.8248
  61   1.0000      -0.323990        -8.8162
  62   1.0000      -0.322066        -8.7639
  63   1.0000      -0.321183        -8.7398
  64   1.0000      -0.318217        -8.6591
  65   1.0000      -0.311501        -8.4764
  66   1.0000      -0.298599        -8.1253
  67   1.0000      -0.270430        -7.3588
  68   1.0000      -0.241015        -6.5584
  69   1.0000      -0.222641        -6.0584
  70   0.0000      -0.044693        -1.2161
  71   0.0000      -0.030217        -0.8223
  72   0.0000       0.002339         0.0637
  73   0.0000       0.049387         1.3439
  74   0.0000       0.061588         1.6759

MULLIKEN ATOMIC CHARGES AND SPIN POPULATIONS
--------------------------------------------
   0 C :    0.620778    0.000003
   1 C :    0.029183    0.000002
   2 C :   -0.026017   -0.000005
   3 C :    0.030326    0.000008
   4 C :   -0.060240    0.000010
   5 C :   -0.073273    0.000104
   6 C :    0.023581   -0.000008
   7 H :   -0.055408    0.000003
   8 H :   -0.044431   -0.000000
   9 C :    0.033864    0.000000
  10 H :    0.024100   -0.000000
  11 H :    0.025156   -0.000000
  12 C :   -0.039049    0.000000
  13 H :    0.016315   -0.000000
  14 H :    0.017185   -0.000000
  15 C :   -0.024751    0.000000
  16 H :    0.004811    0.000000
  17 H :    0.004849    0.000000
  18 C :    0.001768   -0.000000
  19 H :    0.017235    0.000000
  20 H :    0.017339    0.000000
  21 C :    0.048227    0.000271
  22 H :    0.030511   -0.000007
  23 H :    0.030433   -0.000007
  24 C :   -0.033392    0.001328
  25 H :    0.013849   -0.000040
  26 H :    0.013687   -0.000040
  27 C :    0.013767    0.000820
  28 H :    0.003117   -0.000025
  29 H :    0.003134   -0.000024
  30 C :   -0.005270    0.010068
  31 H :    0.001046   -0.000241
  32 H :    0.001033   -0.000244
  33 C :    0.000316    0.049540
  34 H :    0.003364    0.000547
  35 H :    0.003386    0.000554
  36 C :   -0.000810   -0.065382
  37 H :    0.010127    0.013419
  38 H :    0.010146    0.013314
  39 C :   -0.068069    1.056632
  40 H :    0.024602   -0.040302
  41 H :    0.024596   -0.040297
  42 C :   -0.595254   -0.000004
  43 H :   -0.031909    0.000000
  44 H :    0.012351    0.000000
  45 H :   -0.056309   -0.000000
Sum of atomic charges         :   -0.0000000

LOEWDIN ATOMIC CHARGES AND SPIN POPULATIONS
-------------------------------------------
   0 C :   -0.001168    0.000002
   1 C :   -0.018354    0.000001
   2 C :   -0.027309   -0.000003
   3 C :   -0.005856    0.000008
   4 C :   -0.056863    0.000021
   5 C :   -0.005996    0.000095
   6 C :   -0.029457    0.000000
   7 H :    0.027561    0.000002
   8 H :    0.025637    0.000002
   9 C :   -0.035714   -0.000000
  10 H :    0.034756   -0.000000
  11 H :    0.035128   -0.000000
  12 C :   -0.044016    0.000000
  13 H :    0.024820    0.000000
  14 H :    0.024747    0.000000
  15 C :   -0.047549    0.000000
  16 H :    0.023481    0.000000
  17 H :    0.023485    0.000000
  18 C :   -0.067398    0.000000
  19 H :    0.025314    0.000000
  20 H :    0.025350    0.000000
  21 C :   -0.034755    0.000247
  22 H :    0.038713   -0.000000
  23 H :    0.038664   -0.000000
  24 C :   -0.042360    0.001195
  25 H :    0.023460    0.000001
  26 H :    0.023459    0.000001
  27 C :   -0.039241    0.001497
  28 H :    0.023082    0.000030
  29 H :    0.023094    0.000031
  30 C :   -0.043326    0.007246
  31 H :    0.021861    0.000084
  32 H :    0.021868    0.000083
  33 C :   -0.037346    0.050460
  34 H :    0.021858    0.001101
  35 H :    0.021863    0.001099
  36 C :   -0.068303    0.010503
  37 H :    0.029174    0.010214
  38 H :    0.029161    0.010126
  39 C :   -0.015927    0.898123
  40 H :    0.009594    0.003918
  41 H :    0.009594    0.003917
  42 C :   -0.057305   -0.000003
  43 H :    0.021364   -0.000000
  44 H :    0.027310    0.000000
  45 H :    0.023840   -0.000000

  Mayer bond orders larger than 0.100000
B(  0-C ,  4-C ) :   0.9081 B(  0-C , 42-C ) :   2.1398 B(  1-C ,  2-C ) :   1.4217
B(  1-C ,  6-C ) :   1.4310 B(  1-C , 45-H ) :   0.9332 B(  2-C ,  3-C ) :   1.4263
B(  2-C ,  9-C ) :   1.0448 B(  3-C ,  4-C ) :   1.3924 B(  3-C ,  7-H ) :   0.9277
B(  4-C ,  5-C ) :   1.4094 B(  5-C ,  6-C ) :   1.4414 B(  5-C , 21-C ) :   1.0888
B(  6-C ,  8-H ) :   0.9184 B(  9-C , 10-H ) :   0.9145 B(  9-C , 11-H ) :   0.9138
B(  9-C , 12-C ) :   1.1039 B( 12-C , 13-H ) :   0.9312 B( 12-C , 14-H ) :   0.9302
B( 12-C , 15-C ) :   1.0751 B( 15-C , 16-H ) :   0.9414 B( 15-C , 17-H ) :   0.9413
B( 15-C , 18-C ) :   1.1057 B( 18-C , 19-H ) :   0.9665 B( 18-C , 20-H ) :   0.9666
B( 18-C , 44-H ) :   0.9621 B( 21-C , 22-H ) :   0.8985 B( 21-C , 23-H ) :   0.8987
B( 21-C , 24-C ) :   1.0999 B( 24-C , 25-H ) :   0.9274 B( 24-C , 26-H ) :   0.9275
B( 24-C , 27-C ) :   1.0780 B( 27-C , 28-H ) :   0.9340 B( 27-C , 29-H ) :   0.9340
B( 27-C , 30-C ) :   1.0777 B( 30-C , 31-H ) :   0.9358 B( 30-C , 32-H ) :   0.9358
B( 30-C , 33-C ) :   1.0780 B( 33-C , 34-H ) :   0.9401 B( 33-C , 35-H ) :   0.9401
B( 33-C , 36-C ) :   1.0485 B( 36-C , 37-H ) :   0.9358 B( 36-C , 38-H ) :   0.9359
B( 36-C , 39-C ) :   1.1365 B( 39-C , 40-H ) :   0.9649 B( 39-C , 41-H ) :   0.9648
B( 42-C , 43-H ) :   1.1171

FINAL SINGLE POINT ENERGY      -739.689749861234

DIPOLE MOMENT
-------------
                                X             Y             Z
Electronic contribution:      4.33796      -7.76022       0.41834
Nuclear contribution   :     -4.60761       7.61668      -0.41887
                        -----------------------------------------
Total Dipole Moment    :     -0.26965      -0.14354      -0.00053
                        -----------------------------------------
Magnitude (a.u.)       :      0.30548
Magnitude (Debye)      :      0.77646

Rotational constants in cm-1:     0.036146     0.002970     0.002760
Rotational constants in MHz :  1083.615941    89.033687    82.745820

                             ****ORCA TERMINATED NORMALLY****
TOTAL RUN TIME: 0 days 0 hours 2 minutes 38 seconds 760 msec
