 Gaussian 09, Revision D.01,
 Gaussian 09:  ES64L-G09RevD.01 24-Apr-2013

 ---------------------------------------
 #P bmk/6-31+g opt(modredun,calcfc) freq
 ---------------------------------------

 ------------------------------
 Gaussian input prepared by ASE
 ------------------------------
 Symbolic Z-matrix:
 Charge =  0 Multiplicity = 2

 SCF Done:  E(UBMK) =  -545.559878951     A.U. after   18 cycles
 SCF Done:  E(UBMK) =  -545.560379069     A.U. after   14 cycles
 SCF Done:  E(UBMK) =  -545.560373331     A.U. after   14 cycles
 SCF Done:  E(UBMK) =  -545.560398619     A.U. after   13 cycles
 SCF Done:  E(UBMK) =  -545.560399683     A.U. after   10 cycles
 Optimization completed.
    -- Stationary point found.
 Normal termination of Gaussian 09 at Fri May 10 15:59:25 2024.

 ----------------------------------------------------------------
 #P Geom=AllCheck Guess=TCheck SCRF=Check GenChk UBMK/6-31+G Freq
 ----------------------------------------------------------------

 Structure from the checkpoint file:  "g09BDE.chk"
 ------------------------------
 Gaussian input prepared by ASE
 ------------------------------
 Charge =  0 Multiplicity = 2

                         Standard orientation:
 ---------------------------------------------------------------------
 Center     Atomic      Atomic             Coordinates (Angstroms)
 Number     Number       Type             X           Y           Z
 ---------------------------------------------------------------------
      1          6           0        0.297325   -1.320194    0.000005
      2          6           0        1.388897   -0.454658    0.000002
      3          6           0        1.042103    0.920647    0.000003
      4          6           0       -0.302037    1.332409    0.000004
      5          6           0       -1.368914    0.407965    0.000005
      6          6           0       -1.045202   -0.973137    0.000006
      7          1           0        1.829022    1.672476    0.000001
      8          1           0       -1.823212   -1.732056    0.000007
      9          6           0        2.825010   -0.973716   -0.000003
     10          1           0        2.962891   -1.621252   -0.880819
     11          1           0        2.962895   -1.621256    0.880810
     12          6           0        3.920617    0.112607   -0.000003
     13          1           0        3.805948    0.758038   -0.885940
     14          1           0        3.805946    0.758041    0.885932
     15          6           0        5.341428   -0.495738    0.000000
     16          1           0        5.458469   -1.142618    0.884084
     17          1           0        5.458468   -1.142629   -0.884075
     18          6           0        6.443509    0.586214   -0.000006
     19          1           0        6.358255    1.227681    0.889043
     20          1           0        6.358257    1.227667   -0.889066
     21          6           0       -2.809963    0.917817    0.000006
     22          1           0       -2.952321    1.564450    0.881883
     23          1           0       -2.952320    1.564450   -0.881871
     24          6           0       -3.907215   -0.166725    0.000004
     25          1           0       -3.792012   -0.812034   -0.885872
     26          1           0       -3.792025   -0.812023    0.885890
     27          6           0       -5.328216    0.441061   -0.000010
     28          1           0       -5.445778    1.087831    0.884170
     29          1           0       -5.445768    1.087816   -0.884203
     30          6           0       -6.429691   -0.641498   -0.000007
     31          1           0       -6.344011   -1.282907    0.888986
     32          1           0       -6.344000   -1.282923   -0.888987
     33          1           0        7.445583    0.136584   -0.000001
     34          1           0       -7.431996   -0.192429   -0.000017
     35          1           0       -0.528207    2.398767    0.000004
 ---------------------------------------------------------------------

 SCF Done:  E(UBMK) =  -545.560399683     A.U. after    1 cycles

 The electronic state is 2-A.
 Alpha  occ. eigenvalues --  -10.50466 -10.49733 -10.49575 -10.48736 -10.48560
 Alpha  occ. eigenvalues --  -10.47929 -10.47802 -10.47665 -10.47150 -10.47120
 Alpha  occ. eigenvalues --  -10.47021 -10.46991 -10.46156 -10.46084  -0.94014
 Alpha  occ. eigenvalues --   -0.88499  -0.86793  -0.83835  -0.81110  -0.80113
 Alpha  occ. eigenvalues --   -0.76553  -0.71672  -0.68352  -0.66740  -0.64395
 Alpha  occ. eigenvalues --   -0.63179  -0.61893  -0.54392  -0.52907  -0.52713
 Alpha  occ. eigenvalues --   -0.51292  -0.49073  -0.47491  -0.47172  -0.47015
 Alpha  occ. eigenvalues --   -0.46997  -0.46089  -0.43905  -0.41832  -0.41739
 Alpha  occ. eigenvalues --   -0.40862  -0.40453  -0.40430  -0.38320  -0.37417
 Alpha  occ. eigenvalues --   -0.37134  -0.36936  -0.36707  -0.36464  -0.35616
 Alpha  occ. eigenvalues --   -0.28765  -0.27258  -0.26741
 Alpha virt. eigenvalues --    0.01940   0.02299   0.04871   0.05190   0.05482
 Alpha virt. eigenvalues --    0.05955   0.06159   0.07308   0.07834   0.07843
 Alpha virt. eigenvalues --    0.08126   0.08762   0.09203   0.10069   0.10328

  Beta  occ. eigenvalues --  -10.49632 -10.49531 -10.48643 -10.48553 -10.48538
  Beta  occ. eigenvalues --  -10.48031 -10.47787 -10.47600 -10.47149 -10.47119
  Beta  occ. eigenvalues --  -10.47020 -10.46991 -10.46157 -10.46083  -0.93340
  Beta  occ. eigenvalues --   -0.88382  -0.86719  -0.83663  -0.80199  -0.79964
  Beta  occ. eigenvalues --   -0.76372  -0.71562  -0.68221  -0.66265  -0.64374
  Beta  occ. eigenvalues --   -0.62622  -0.61043  -0.53950  -0.52892  -0.52712
  Beta  occ. eigenvalues --   -0.50856  -0.48405  -0.47438  -0.47118  -0.46987
  Beta  occ. eigenvalues --   -0.46783  -0.45969  -0.43552  -0.41637  -0.41216
  Beta  occ. eigenvalues --   -0.40651  -0.40432  -0.39867  -0.38090  -0.37274
  Beta  occ. eigenvalues --   -0.36983  -0.36919  -0.36692  -0.36396  -0.35436
  Beta  occ. eigenvalues --   -0.28253  -0.26313
  Beta virt. eigenvalues --   -0.04949   0.02226   0.03056   0.04891   0.05214
  Beta virt. eigenvalues --    0.05487   0.05980   0.06308   0.07329   0.07865
  Beta virt. eigenvalues --    0.07913   0.08107   0.09039   0.09369   0.10096

 Mulliken charges and spin densities:
               1          2
     1  C    0.439738   1.036281
     2  C    0.114933  -0.123543
     3  C   -0.588917   0.113136
     4  C    0.266392  -0.066723
     5  C    0.044049   0.117177
     6  C   -0.753900  -0.072265
     7  H    0.176917   0.010887
     8  H    0.192599   0.024150
     9  C   -0.430260  -0.043847
    10  H    0.209164  -0.001706
    11  H    0.209164  -0.001706
    12  C   -0.404492  -0.005518
    13  H    0.186568   0.000033
    14  H    0.186568   0.000033
    15  C   -0.159808  -0.003363
    16  H    0.182542  -0.000018
    17  H    0.182542  -0.000018
    18  C   -0.720962   0.000575
    19  H    0.187668  -0.000015
    20  H    0.187668  -0.000015
    21  C   -0.489716   0.003108
    22  H    0.206929   0.002112
    23  H    0.206929   0.002112
    24  C   -0.417199   0.003690
    25  H    0.188340   0.000027
    26  H    0.188341   0.000027
    27  C   -0.167345   0.001147
    28  H    0.181912   0.000021
    29  H    0.181912   0.000021
    30  C   -0.716205   0.000831
    31  H    0.188356   0.000001
    32  H    0.188356   0.000001
    33  H    0.186122   0.000023
    34  H    0.186106  -0.000008
    35  H    0.178987   0.003349
 Sum of Mulliken charges =   0.00000   1.00000

 Dipole moment (field-independent basis, Debye):
    X=             -0.2288    Y=              0.8732    Z=              0.0000  Tot=              0.9027
 Quadrupole moment (field-independent basis, Debye-Ang):
   XX=            -80.5850   YY=            -88.6216   ZZ=            -91.9151
   XY=             -0.7697   XZ=              0.0000   YZ=              0.0000

  Exact polarizability: 215.974  -3.053 149.760   0.000   0.003 112.709
 Approx polarizability: 211.393  -4.341 201.927   0.000   0.000 140.505

                      1                      2                      3
                      A                      A                      A
 Frequencies --     22.1182                42.2144                63.8033
 Red. masses --      3.8435                 3.3054                 3.7499
 Frc consts  --      0.0011                 0.0035                 0.0090
 IR Inten    --      0.0319                 0.0403                 0.0950

                      4                      5                      6
                      A                      A                      A
 Frequencies --     89.3030               107.2877               117.9576
 Red. masses --      1.6681                 1.8547                 3.3869
 Frc consts  --      0.0078                 0.0126                 0.0278
 IR Inten    --      0.6039                 0.0540                 0.0470

                      7                      8                      9
                      A                      A                      A
 Frequencies --    124.5245               125.7498               156.8886
 Red. masses --      2.0561                 2.0721                 2.4427
 Frc consts  --      0.0188                 0.0193                 0.0354
 IR Inten    --      0.0062                 0.0146                 2.4894

                     10                     11                     12
                      A                      A                      A
 Frequencies --    238.1281               239.7684               263.3182
 Red. masses --      3.4408                 4.0393                 1.1047
 Frc consts  --      0.1150                 0.1368                 0.0451
 IR Inten    --      0.5068                 0.0142                 0.0090

                     13                     14                     15
                      A                      A                      A
 Frequencies --    266.2986               312.8988               330.5525
 Red. masses --      1.0949                 3.1890                 3.3768
 Frc consts  --      0.0457                 0.1840                 0.2174
 IR Inten    --      0.0247                 0.1955                 0.2037

                     16                     17                     18
                      A                      A                      A
 Frequencies --    355.1219               439.5292               454.7495
 Red. masses --      4.5946                 3.1609                 2.9618
 Frc consts  --      0.3414                 0.3598                 0.3609
 IR Inten    --      0.5379                 4.5274                 3.8032

                     19                     20                     21
                      A                      A                      A
 Frequencies --    480.9003               530.3081               589.5854
 Red. masses --      3.1255                 3.0622                 5.1298
 Frc consts  --      0.4259                 0.5074                 1.0506
 IR Inten    --      0.1546                11.1928                 0.3473

                     22                     23                     24
                      A                      A                      A
 Frequencies --    666.3715               703.2217               762.0248
 Red. masses --      7.8817                 2.5918                 1.0846
 Frc consts  --      2.0621                 0.7552                 0.3711
 IR Inten    --      0.5543                 2.6183                 2.3634

                     25                     26                     27
                      A                      A                      A
 Frequencies --    767.0508               779.5353               807.4151
 Red. masses --      1.1276                 4.3852                 1.1868
 Frc consts  --      0.3909                 1.5700                 0.4559
 IR Inten    --      1.3366                 0.1155                18.0258

                     28                     29                     30
                      A                      A                      A
 Frequencies --    827.0231               850.1118               870.3694
 Red. masses --      1.2263                 5.7615                 1.2943
 Frc consts  --      0.4942                 2.4532                 0.5777
 IR Inten    --      0.0164                 0.4540                20.9318

                     31                     32                     33
                      A                      A                      A
 Frequencies --    897.9416               930.2859               932.4113
 Red. masses --      1.3530                 1.8134                 1.7821
 Frc consts  --      0.6427                 0.9247                 0.9128
 IR Inten    --      4.7288                12.4479                 0.2389

                     34                     35                     36
                      A                      A                      A
 Frequencies --    966.9573               978.2577              1008.4803
 Red. masses --      1.2250                 1.2412                 1.3448
 Frc consts  --      0.6748                 0.6998                 0.8059
 IR Inten    --      0.7142                 9.1319                 0.0122

                     37                     38                     39
                      A                      A                      A
 Frequencies --   1042.6996              1053.7797              1058.1495
 Red. masses --      4.2434                 3.9252                 3.4584
 Frc consts  --      2.7182                 2.5681                 2.2815
 IR Inten    --      3.8672                 0.0794                 1.0944

                     40                     41                     42
                      A                      A                      A
 Frequencies --   1098.1747              1102.6447              1138.0857
 Red. masses --      2.5589                 2.5596                 2.1815
 Frc consts  --      1.8182                 1.8336                 1.6648
 IR Inten    --      0.0859                 0.0327                10.5367

                     43                     44                     45
                      A                      A                      A
 Frequencies --   1149.5094              1161.8764              1165.2092
 Red. masses --      2.1673                 1.4383                 1.4510
 Frc consts  --      1.6873                 1.1439                 1.1607
 IR Inten    --      0.1061                 0.0711                 0.3788

                     46                     47                     48
                      A                      A                      A
 Frequencies --   1202.6414              1237.4722              1248.5079
 Red. masses --      1.8335                 3.3451                 2.0889
 Frc consts  --      1.5624                 3.0180                 1.9184
 IR Inten    --      1.6248                 0.3821                 4.2760

                     49                     50                     51
                      A                      A                      A
 Frequencies --   1272.5255              1273.0270              1291.2825
 Red. masses --      1.4346                 1.4339                 2.9137
 Frc consts  --      1.3687                 1.3691                 2.8624
 IR Inten    --      0.0203                 0.1110                 4.6549

                     52                     53                     54
                      A                      A                      A
 Frequencies --   1305.9637              1330.6081              1338.1380
 Red. masses --      1.3542                 1.7268                 1.0994
 Frc consts  --      1.3608                 1.8013                 1.1599
 IR Inten    --      0.0801                 0.2644                 0.0384

                     55                     56                     57
                      A                      A                      A
 Frequencies --   1340.4439              1342.8691              1343.0788
 Red. masses --      1.0975                 1.1201                 1.1230
 Frc consts  --      1.1618                 1.1900                 1.1935
 IR Inten    --      0.0448                 0.4159                 1.3463

                     58                     59                     60
                      A                      A                      A
 Frequencies --   1371.4429              1398.8492              1401.6158
 Red. masses --      1.5285                 1.5797                 1.4526
 Frc consts  --      1.6938                 1.8212                 1.6814
 IR Inten    --      0.5239                 5.3797                 1.3369

                     61                     62                     63
                      A                      A                      A
 Frequencies --   1412.4420              1415.6774              1451.0501
 Red. masses --      1.6357                 1.5946                 1.8445
 Frc consts  --      1.9227                 1.8829                 2.2882
 IR Inten    --      8.2547                 2.8684                10.5851

                     64                     65                     66
                      A                      A                      A
 Frequencies --   1456.2803              1456.9055              1525.9931
 Red. masses --      1.2168                 1.2338                 1.2091
 Frc consts  --      1.5204                 1.5429                 1.6589
 IR Inten    --      5.5464                 8.0364                 9.7265

                     67                     68                     69
                      A                      A                      A
 Frequencies --   1530.7318              1539.8934              1540.5861
 Red. masses --      1.0832                 1.2153                 1.0843
 Frc consts  --      1.4953                 1.6979                 1.5162
 IR Inten    --      5.7120                 5.8306                 1.1981

                     70                     71                     72
                      A                      A                      A
 Frequencies --   1543.4287              1546.8932              1547.4249
 Red. masses --      1.5514                 1.0554                 1.1355
 Frc consts  --      2.1775                 1.4879                 1.6019
 IR Inten    --      9.8363                 2.4914                 7.7915

                     73                     74                     75
                      A                      A                      A
 Frequencies --   1550.5954              1550.6785              1557.1085
 Red. masses --      1.0451                 1.0450                 1.0947
 Frc consts  --      1.4805                 1.4806                 1.5639
 IR Inten    --     12.3780                13.0641                 7.0151

                     76                     77                     78
                      A                      A                      A
 Frequencies --   1557.4781              1584.5013              1652.2987
 Red. masses --      1.0977                 2.8772                 5.7827
 Frc consts  --      1.5689                 4.2561                 9.3017
 IR Inten    --     14.4595                 6.2419                 6.1350

                     79                     80                     81
                      A                      A                      A
 Frequencies --   3054.2139              3055.4445              3058.5700
 Red. masses --      1.0571                 1.0568                 1.0575
 Frc consts  --      5.8098                 5.8127                 5.8285
 IR Inten    --      1.4753                 1.2419                 2.3068

                     82                     83                     84
                      A                      A                      A
 Frequencies --   3063.9545              3066.6552              3068.1701
 Red. masses --      1.0582                 1.0574                 1.0352
 Frc consts  --      5.8533                 5.8587                 5.7414
 IR Inten    --      8.4483                56.6650                33.1102

                     85                     86                     87
                      A                      A                      A
 Frequencies --   3068.8469              3070.4150              3080.9803
 Red. masses --      1.0354                 1.0575                 1.0999
 Frc consts  --      5.7451                 5.8739                 6.1515
 IR Inten    --     40.6080                68.6596                 1.9077

                     88                     89                     90
                      A                      A                      A
 Frequencies --   3084.1260              3092.5056              3097.4400
 Red. masses --      1.1002                 1.1027                 1.1029
 Frc consts  --      6.1660                 6.2136                 6.2344
 IR Inten    --      0.1220                 0.1022                 0.0651

                     91                     92                     93
                      A                      A                      A
 Frequencies --   3116.4215              3117.9660              3140.7116
 Red. masses --      1.1052                 1.1049                 1.1020
 Frc consts  --      6.3241                 6.3290                 6.4043
 IR Inten    --     31.2744                33.0071                63.5774

                     94                     95                     96
                      A                      A                      A
 Frequencies --   3141.2376              3150.6739              3151.0550
 Red. masses --      1.1019                 1.0995                 1.0995
 Frc consts  --      6.4061                 6.4303                 6.4323
 IR Inten    --     72.0426                43.5968                36.6586

                     97                     98                     99
                      A                      A                      A
 Frequencies --   3205.8558              3255.6648              3268.6261
 Red. masses --      1.0897                 1.0909                 1.0884
 Frc consts  --      6.5984                 6.8129                 6.8515
 IR Inten    --     11.5069                13.9522                 3.4420

 - Thermochemistry -
 -------------------
 Temperature   298.150 Kelvin.  Pressure   1.00000 Atm.
 Atom     1 has atomic number  6 and mass  12.00000

 Molecular mass:   189.16433 amu.
 Principal axes and moments of inertia in atomic units:
                           1         2         3
     Eigenvalues --   546.11879********************
           X            1.00000   0.00300   0.00000
           Y           -0.00300   1.00000   0.00000
           Z            0.00000   0.00000   1.00000
 This molecule is an asymmetric top.
 Rotational symmetry number  1.
 Warning -- assumption of classical behavior for rotation
           may cause significant error
 Rotational temperatures (Kelvin)      0.15860     0.00861     0.00824
 Rotational constants (GHZ):           3.30467     0.17943     0.17165
 Zero-point vibrational energy     840954.2 (Joules/Mol)
                                  200.99287 (Kcal/Mol)
 Warning -- explicit consideration of  21 degrees of freedom as
           vibrations may cause significant error
 Vibrational temperatures:     31.82    60.74    91.80   128.49   154.36
          (Kelvin)            169.71   179.16   180.93   225.73   342.61
                              344.97   378.86   383.14   450.19   475.59
                              510.94   632.38   654.28   691.91   762.99
                              848.28   958.76  1011.78  1096.38  1103.61
                             1121.58  1161.69  1189.90  1223.12  1252.27
                             1291.94  1338.47  1341.53  1391.23  1407.49
                             1450.98  1500.21  1516.15  1522.44  1580.03
                             1586.46  1637.45  1653.89  1671.68  1676.47
                             1730.33  1780.44  1796.32  1830.88  1831.60
                             1857.87  1878.99  1914.45  1925.28  1928.60
                             1932.09  1932.39  1973.20  2012.63  2016.61
                             2032.19  2036.84  2087.73  2095.26  2096.16
                             2195.56  2202.38  2215.56  2216.56  2220.65
                             2225.63  2226.40  2230.96  2231.08  2240.33
                             2240.86  2279.74  2377.29  4394.33  4396.10
                             4400.59  4408.34  4412.23  4414.41  4415.38
                             4417.64  4432.84  4437.36  4449.42  4456.52
                             4483.83  4486.05  4518.78  4519.53  4533.11
                             4533.66  4612.51  4684.17  4702.82

 Zero-point correction=                           0.320303 (Hartree/Particle)
 Thermal correction to Energy=                    0.335599
 Thermal correction to Enthalpy=                  0.336544
 Thermal correction to Gibbs Free Energy=         0.275728
 Sum of electronic and zero-point Energies=           -545.240097
 Sum of electronic and thermal Energies=              -545.224800
 Sum of electronic and thermal Enthalpies=            -545.223856
 Sum of electronic and thermal Free Energies=         -545.284672

                     E (Thermal)             CV                S
                      KCal/Mol        Cal/Mol-Kelvin    Cal/Mol-Kelvin
 Total                  210.592             56.314            127.998
 Electronic               0.000              0.000              1.377
 Translational            0.889              2.981             41.618
 Rotational               0.889              2.981             32.424
 Vibrational            208.814             50.352             52.578
 Vibration     1          0.593              1.985              6.434
 Vibration     2          0.595              1.980              5.152
 Vibration     3          0.597              1.972              4.336
 Vibration     4          0.602              1.957              3.675
 Vibration     5          0.606              1.943              3.317
 Vibration     6          0.608              1.934              3.134
 Vibration     7          0.610              1.928              3.029
 Vibration     8          0.611              1.927              3.010
 Vibration     9          0.621              1.895              2.587
 Vibration    10          0.656              1.782              1.817
 Vibration    11          0.657              1.780              1.805
 Vibration    12          0.670              1.740              1.640
 Vibration    13          0.672              1.735              1.620
 Vibration    14          0.701              1.649              1.347
 Vibration    15          0.713              1.614              1.257
 Vibration    16          0.731              1.565              1.143
 Vibration    17          0.800              1.384              0.828
 Vibration    18          0.813              1.350              0.782
 Vibration    19          0.837              1.292              0.708
 Vibration    20          0.885              1.183              0.587
 Vibration    21          0.947              1.054              0.468

 Optimization completed.
    -- Stationary point found.
 Normal termination of Gaussian 09 at Fri May 10 16:10:58 2024.
