                         Program Version 5.0.4 -  RELEASE  -
|  1> ! B3LYP cc-pVDZ AUTOAUX
|  2> %pal nprocs 16 end
|  3> *XYZFile 0 2 opt.xyz
|  4> %EPRNMR
|  5>         GTENSOR   TRUE
|  6>         NUCLEI    = ALL H {SHIFT, AISO, ADIP, AORB}
|  7>         ORI       GIAO
|  8> END
|  9>
| 10>                          ****END OF INPUT****

CARTESIAN COORDINATES (ANGSTROEM)
---------------------------------
  C      4.303993   -0.099044   -0.019986
  C      0.095379    0.041847   -0.250332
  C      0.727206   -1.205028   -0.115214
  C      2.122929   -1.212411   -0.043556
  C      2.874308   -0.020154   -0.101380
  C      2.228091    1.234157   -0.236580
  C      0.828539    1.228178   -0.309060
  H      2.668303   -2.150773    0.059972
  H      0.289670    2.170928   -0.414345
  C     -0.115666   -2.468406   -0.049589
  H     -0.784199   -2.484013   -0.930720
  H     -0.791676   -2.389160    0.822893
  C      0.636247   -3.799827    0.026362
  H      1.309912   -3.896981   -0.845049
  H      1.286422   -3.811728    0.920477
  C     -0.301843   -5.011708    0.074983
  H     -0.977280   -4.914794    0.945461
  H     -0.955453   -5.002515   -0.817199
  C      0.442407   -6.347212    0.151027
  H      1.079450   -6.399990    1.050835
  H      1.097598   -6.491215   -0.725436
  C      3.053158    2.505621   -0.293993
  H      3.669351    2.559915    0.622764
  H      3.788282    2.406081   -1.113865
  C      2.286495    3.819607   -0.461501
  H      1.683582    3.789097   -1.387366
  H      1.571864    3.952366    0.370090
  C      3.218416    5.039823   -0.514112
  H      3.844016    5.071239    0.400108
  H      3.946453    4.894522   -1.346232
  C      2.505214    6.343014   -0.678289
  H      1.561879    6.348293   -1.239679
  C      3.174852    7.653563   -0.417869
  H      3.874748    7.897348   -1.251684
  H      3.824892    7.567710    0.475950
  C      2.204128    8.830751   -0.238803
  H      1.570192    8.913846   -1.141092
  H      1.516816    8.605008    0.596374
  C      2.912091   10.163176    0.016523
  H      3.531850   10.118821    0.928896
  H      3.579244   10.430027   -0.821537
  C      5.515728   -0.175457    0.048577
  H      6.584104   -0.243307    0.110603
  H     -0.257066   -7.198161    0.187741
  H      2.190725   10.986727    0.143833
  H     -0.996407    0.085398   -0.311066

 Total Charge           Charge          ....    0
 Multiplicity           Mult            ....    2
 Number of Electrons    NEL             ....  141
 Basis Dimension        Dim             ....  401

ORBITAL ENERGIES
----------------
                 SPIN UP ORBITALS
  NO   OCC          E(Eh)            E(eV)
   0   1.0000     -10.205240      -277.6987
   1   1.0000     -10.195713      -277.4394
   2   1.0000     -10.192180      -277.3433
   3   1.0000     -10.187679      -277.2208
   4   1.0000     -10.186846      -277.1982
   5   1.0000     -10.186442      -277.1872
   6   1.0000     -10.185118      -277.1511
   7   1.0000     -10.184095      -277.1233
   8   1.0000     -10.183479      -277.1066
   9   1.0000     -10.182722      -277.0859
  10   1.0000     -10.182065      -277.0681
  11   1.0000     -10.181385      -277.0496
  12   1.0000     -10.181381      -277.0495
  13   1.0000     -10.181147      -277.0431
  14   1.0000     -10.181125      -277.0425
  15   1.0000     -10.180727      -277.0317
  16   1.0000     -10.179302      -276.9929
  17   1.0000     -10.175696      -276.8948
  18   1.0000     -10.173851      -276.8446
  19   1.0000      -0.863643       -23.5009
  20   1.0000      -0.813184       -22.1279
  21   1.0000      -0.803394       -21.8615
  22   1.0000      -0.784570       -21.3492
  23   1.0000      -0.776585       -21.1319
  24   1.0000      -0.758559       -20.6414
  25   1.0000      -0.731680       -19.9100
  26   1.0000      -0.721272       -19.6268
  27   1.0000      -0.705027       -19.1848
  28   1.0000      -0.672368       -18.2961
  29   1.0000      -0.639183       -17.3930
  30   1.0000      -0.618008       -16.8168
  31   1.0000      -0.609292       -16.5797
  32   1.0000      -0.584550       -15.9064
  33   1.0000      -0.577378       -15.7113
  34   1.0000      -0.561595       -15.2818
  35   1.0000      -0.559915       -15.2361
  36   1.0000      -0.525158       -14.2903
  37   1.0000      -0.493275       -13.4227
  38   1.0000      -0.470391       -12.8000
  39   1.0000      -0.470125       -12.7927
  40   1.0000      -0.467134       -12.7114
  41   1.0000      -0.459843       -12.5130
  42   1.0000      -0.453953       -12.3527
  43   1.0000      -0.430246       -11.7076
  44   1.0000      -0.426987       -11.6189
  45   1.0000      -0.422268       -11.4905
  46   1.0000      -0.419058       -11.4031
  47   1.0000      -0.412993       -11.2381
  48   1.0000      -0.406598       -11.0641
  49   1.0000      -0.405032       -11.0215
  50   1.0000      -0.383812       -10.4441
  51   1.0000      -0.379703       -10.3322
  52   1.0000      -0.374678       -10.1955
  53   1.0000      -0.363545        -9.8926
  54   1.0000      -0.361751        -9.8437
  55   1.0000      -0.353814        -9.6278
  56   1.0000      -0.349256        -9.5037
  57   1.0000      -0.347253        -9.4492
  58   1.0000      -0.333601        -9.0778
  59   1.0000      -0.330665        -8.9979
  60   1.0000      -0.327823        -8.9205
  61   1.0000      -0.325697        -8.8627
  62   1.0000      -0.323600        -8.8056
  63   1.0000      -0.322585        -8.7780
  64   1.0000      -0.321159        -8.7392
  65   1.0000      -0.313029        -8.5180
  66   1.0000      -0.298424        -8.1205
  67   1.0000      -0.270276        -7.3546
  68   1.0000      -0.240810        -6.5528
  69   1.0000      -0.222501        -6.0545
  70   1.0000      -0.180727        -4.9178
  71   0.0000      -0.029962        -0.8153
  72   0.0000       0.002624         0.0714
  73   0.0000       0.049788         1.3548
  74   0.0000       0.062047         1.6884
  75   0.0000       0.064739         1.7616

                 SPIN DOWN ORBITALS
  NO   OCC          E(Eh)            E(eV)
   0   1.0000     -10.205234      -277.6985
   1   1.0000     -10.195721      -277.4397
   2   1.0000     -10.192174      -277.3432
   3   1.0000     -10.187679      -277.2208
   4   1.0000     -10.186847      -277.1982
   5   1.0000     -10.186444      -277.1872
   6   1.0000     -10.185120      -277.1512
   7   1.0000     -10.184089      -277.1232
   8   1.0000     -10.183615      -277.1102
   9   1.0000     -10.183465      -277.1062
  10   1.0000     -10.182065      -277.0681
  11   1.0000     -10.181656      -277.0569
  12   1.0000     -10.181383      -277.0495
  13   1.0000     -10.181381      -277.0495
  14   1.0000     -10.180892      -277.0361
  15   1.0000     -10.179027      -276.9854
  16   1.0000     -10.175696      -276.8948
  17   1.0000     -10.173839      -276.8442
  18   1.0000     -10.167268      -276.6654
  19   1.0000      -0.863621       -23.5003
  20   1.0000      -0.811283       -22.0761
  21   1.0000      -0.797503       -21.7012
  22   1.0000      -0.783323       -21.3153
  23   1.0000      -0.776456       -21.1284
  24   1.0000      -0.756974       -20.5983
  25   1.0000      -0.727218       -19.7886
  26   1.0000      -0.721269       -19.6267
  27   1.0000      -0.701692       -19.0940
  28   1.0000      -0.671626       -18.2759
  29   1.0000      -0.638086       -17.3632
  30   1.0000      -0.617450       -16.8017
  31   1.0000      -0.607073       -16.5193
  32   1.0000      -0.583283       -15.8719
  33   1.0000      -0.576745       -15.6940
  34   1.0000      -0.559690       -15.2299
  35   1.0000      -0.546043       -14.8586
  36   1.0000      -0.524854       -14.2820
  37   1.0000      -0.492949       -13.4138
  38   1.0000      -0.470315       -12.7979
  39   1.0000      -0.468186       -12.7400
  40   1.0000      -0.463838       -12.6217
  41   1.0000      -0.459525       -12.5043
  42   1.0000      -0.452051       -12.3009
  43   1.0000      -0.427808       -11.6412
  44   1.0000      -0.425332       -11.5739
  45   1.0000      -0.421693       -11.4748
  46   1.0000      -0.418890       -11.3986
  47   1.0000      -0.412705       -11.2303
  48   1.0000      -0.403278       -10.9738
  49   1.0000      -0.399497       -10.8709
  50   1.0000      -0.381673       -10.3859
  51   1.0000      -0.376522       -10.2457
  52   1.0000      -0.373932       -10.1752
  53   1.0000      -0.362644        -9.8680
  54   1.0000      -0.360143        -9.8000
  55   1.0000      -0.352917        -9.6034
  56   1.0000      -0.347768        -9.4632
  57   1.0000      -0.345831        -9.4106
  58   1.0000      -0.332583        -9.0501
  59   1.0000      -0.328640        -8.9428
  60   1.0000      -0.326406        -8.8820
  61   1.0000      -0.324905        -8.8411
  62   1.0000      -0.323302        -8.7975
  63   1.0000      -0.321873        -8.7586
  64   1.0000      -0.319785        -8.7018
  65   1.0000      -0.310478        -8.4485
  66   1.0000      -0.298388        -8.1196
  67   1.0000      -0.270270        -7.3544
  68   1.0000      -0.240755        -6.5513
  69   1.0000      -0.222436        -6.0528
  70   0.0000      -0.036174        -0.9843
  71   0.0000      -0.029739        -0.8092
  72   0.0000       0.002728         0.0742
  73   0.0000       0.049836         1.3561
  74   0.0000       0.062057         1.6887

MULLIKEN ATOMIC CHARGES AND SPIN POPULATIONS
--------------------------------------------
   0 C :    0.620207   -0.000073
   1 C :    0.028871   -0.000206
   2 C :   -0.026561    0.000341
   3 C :    0.029320   -0.000186
   4 C :   -0.058824    0.000393
   5 C :   -0.072418   -0.000350
   6 C :    0.022375    0.000394
   7 H :   -0.055063    0.000008
   8 H :   -0.043618   -0.000016
   9 C :    0.033734   -0.000027
  10 H :    0.023699    0.000014
  11 H :    0.025932    0.000015
  12 C :   -0.039348    0.000001
  13 H :    0.015806   -0.000000
  14 H :    0.018003    0.000001
  15 C :   -0.025242    0.000000
  16 H :    0.005031    0.000000
  17 H :    0.005041    0.000000
  18 C :    0.001004   -0.000000
  19 H :    0.017375    0.000000
  20 H :    0.017668    0.000000
  21 C :    0.045485    0.001142
  22 H :    0.030987    0.000157
  23 H :    0.030433    0.000260
  24 C :   -0.042114    0.008372
  25 H :    0.016823   -0.000912
  26 H :    0.018386    0.002847
  27 C :    0.067192   -0.064595
  28 H :    0.006664    0.018253
  29 H :    0.014354    0.058788
  30 C :   -0.113835    0.990175
  31 H :   -0.017745   -0.039554
  32 C :    0.040636   -0.064567
  33 H :    0.013251    0.059290
  34 H :    0.004265    0.017029
  35 C :   -0.045291    0.009238
  36 H :    0.007685   -0.001013
  37 H :    0.008498    0.003050
  38 C :   -0.002989    0.001497
  39 H :    0.016373    0.000147
  40 H :    0.016159    0.000206
  41 C :   -0.595703    0.000105
  42 H :   -0.031540   -0.000005
  43 H :    0.012571   -0.000000
  44 H :    0.012094   -0.000228
  45 H :   -0.055632    0.000006
Sum of atomic charges         :    0.0000000

LOEWDIN ATOMIC CHARGES AND SPIN POPULATIONS
-------------------------------------------
   0 C :   -0.001134   -0.000017
   1 C :   -0.018359   -0.000121
   2 C :   -0.027412    0.000258
   3 C :   -0.006029   -0.000102
   4 C :   -0.056777    0.000282
   5 C :   -0.005908   -0.000179
   6 C :   -0.029205    0.000302
   7 H :    0.027583    0.000001
   8 H :    0.025984    0.000013
   9 C :   -0.035794    0.000002
  10 H :    0.034583    0.000011
  11 H :    0.035374    0.000012
  12 C :   -0.044061    0.000000
  13 H :    0.024870   -0.000000
  14 H :    0.024735    0.000000
  15 C :   -0.047617    0.000000
  16 H :    0.023530    0.000000
  17 H :    0.023504    0.000000
  18 C :   -0.067549   -0.000000
  19 H :    0.025337    0.000000
  20 H :    0.025408    0.000000
  21 C :   -0.035465    0.000886
  22 H :    0.039010    0.000190
  23 H :    0.038374    0.000616
  24 C :   -0.039688    0.007504
  25 H :    0.024355   -0.000292
  26 H :    0.024319    0.001745
  27 C :   -0.057047    0.009555
  28 H :    0.028621    0.014338
  29 H :    0.030923    0.047061
  30 C :   -0.010233    0.830048
  31 H :    0.006256    0.006064
  32 C :   -0.061005    0.009354
  33 H :    0.029839    0.047434
  34 H :    0.027275    0.013340
  35 C :   -0.046925    0.008441
  36 H :    0.023749   -0.000328
  37 H :    0.023579    0.001944
  38 C :   -0.068836    0.000956
  39 H :    0.024954    0.000183
  40 H :    0.024563    0.000472
  41 C :   -0.057481    0.000092
  42 H :    0.021361    0.000000
  43 H :    0.027350   -0.000000
  44 H :    0.027112   -0.000064
  45 H :    0.023977   -0.000001

  Mayer bond orders larger than 0.100000
B(  0-C ,  4-C ) :   0.9077 B(  0-C , 41-C ) :   2.1412 B(  1-C ,  2-C ) :   1.4221
B(  1-C ,  6-C ) :   1.4308 B(  1-C , 45-H ) :   0.9331 B(  2-C ,  3-C ) :   1.4267
B(  2-C ,  9-C ) :   1.0450 B(  3-C ,  4-C ) :   1.3926 B(  3-C ,  7-H ) :   0.9276
B(  4-C ,  5-C ) :   1.4098 B(  5-C ,  6-C ) :   1.4419 B(  5-C , 21-C ) :   1.0881
B(  6-C ,  8-H ) :   0.9184 B(  9-C , 10-H ) :   0.9148 B(  9-C , 11-H ) :   0.9134
B(  9-C , 12-C ) :   1.1038 B( 12-C , 13-H ) :   0.9320 B( 12-C , 14-H ) :   0.9295
B( 12-C , 15-C ) :   1.0751 B( 15-C , 16-H ) :   0.9414 B( 15-C , 17-H ) :   0.9413
B( 15-C , 18-C ) :   1.1057 B( 18-C , 19-H ) :   0.9665 B( 18-C , 20-H ) :   0.9666
B( 18-C , 43-H ) :   0.9622 B( 21-C , 22-H ) :   0.8984 B( 21-C , 23-H ) :   0.8982
B( 21-C , 24-C ) :   1.0997 B( 24-C , 25-H ) :   0.9288 B( 24-C , 26-H ) :   0.9311
B( 24-C , 27-C ) :   1.0730 B( 27-C , 28-H ) :   0.9244 B( 27-C , 29-H ) :   0.9113
B( 27-C , 30-C ) :   1.0717 B( 30-C , 31-H ) :   0.9586 B( 30-C , 32-C ) :   1.0800
B( 32-C , 33-H ) :   0.9156 B( 32-C , 34-H ) :   0.9283 B( 32-C , 35-C ) :   1.0709
B( 35-C , 36-H ) :   0.9445 B( 35-C , 37-H ) :   0.9474 B( 35-C , 38-C ) :   1.1048
B( 38-C , 39-H ) :   0.9667 B( 38-C , 40-H ) :   0.9664 B( 38-C , 44-H ) :   0.9628
B( 41-C , 42-H ) :   1.1165

FINAL SINGLE POINT ENERGY      -739.695448160604

DIPOLE MOMENT
-------------
                                X             Y             Z
Electronic contribution:      4.23481     -11.00147      -0.16397
Nuclear contribution   :     -4.44592      11.00378       0.11775
                        -----------------------------------------
Total Dipole Moment    :     -0.21111       0.00230      -0.04621
                        -----------------------------------------
Magnitude (a.u.)       :      0.21612
Magnitude (Debye)      :      0.54933

Rotational constants in cm-1:     0.034304     0.002976     0.002760
Rotational constants in MHz :  1028.401036    89.219646    82.746430

CHEMICAL SHIELDING SUMMARY (ppm)  --  Orbital contribution
----------------------------------------------------------

  Nucleus  Element    Isotropic     Anisotropy
  -------  -------  ------------   ------------
      7       H           24.194         12.369
      8       H           24.423         10.167
     10       H           28.766          5.490
     11       H           28.726          5.293
     13       H           29.824          4.361
     14       H           29.744          4.682
     16       H           29.965          6.610
     17       H           29.966          6.665
     19       H           30.328          7.777
     20       H           30.326          7.754
     22       H           28.630          5.555
     23       H           28.561          5.901
     25       H           29.659          5.189
     26       H           29.589          4.835
     28       H           29.237          4.537
     29       H           28.854          5.070
     31       H           27.205          8.238
     33       H           28.986          5.355
     34       H           29.375          3.644
     36       H           29.879          6.470
     37       H           29.834          6.081
     39       H           30.448          7.831
     40       H           30.389          7.943
     42       H           28.251         10.602
     43       H           30.134         10.176
     44       H           30.191          9.787
     45       H           24.407          8.364

                             ****ORCA TERMINATED NORMALLY****
TOTAL RUN TIME: 0 days 0 hours 54 minutes 57 seconds 148 msec
