                         Program Version 5.0.4 -  RELEASE  -
|  1> ! B3LYP cc-pVDZ AUTOAUX
|  2> %pal nprocs 16 end
|  3> *XYZFile 0 2 opt_cc-pVDZ.xyz
|  4> %EPRNMR
|  5>         GTENSOR   TRUE
|  6>         NUCLEI    = ALL H {SHIFT, AISO, ADIP, AORB}
|  7>         ORI       GIAO
|  8> END
|  9>
| 10>                          ****END OF INPUT****

CARTESIAN COORDINATES (ANGSTROEM)
---------------------------------
  C      4.302806   -0.098134   -0.018100
  C      0.094380    0.040825   -0.250086
  C      0.726644   -1.205804   -0.114693
  C      2.122363   -1.212548   -0.042464
  C      2.873074   -0.019871   -0.100081
  C      2.226449    1.234162   -0.235562
  C      0.826888    1.227637   -0.308566
  H      2.668260   -2.150562    0.061344
  H      0.287878    2.170265   -0.413989
  C     -0.115757   -2.469504   -0.049398
  H     -0.784433   -2.484996   -0.930401
  H     -0.791472   -2.391005    0.823364
  C      0.636859   -3.800618    0.025685
  H      1.310681   -3.896765   -0.845718
  H      1.286960   -3.812799    0.919851
  C     -0.300551   -5.013047    0.073307
  H     -0.976195   -4.917196    0.943743
  H     -0.954030   -5.003610   -0.818966
  C      0.444482   -6.348174    0.148493
  H      1.081377   -6.401246    1.048389
  H      1.099929   -6.491118   -0.727952
  C      3.051057    2.505911   -0.292904
  H      3.668167    2.559803    0.623235
  H      3.785388    2.407214   -1.113607
  C      2.283852    3.819752   -0.458943
  H      1.680300    3.789813   -1.384400
  H      1.569824    3.951823    0.373297
  C      3.215454    5.040204   -0.511554
  H      3.842152    5.071039    0.401948
  H      3.943060    4.895111   -1.344183
  C      2.502381    6.343514   -0.674882
  H      1.558197    6.349126   -1.234730
  C      3.174480    7.653419   -0.417957
  H      3.872970    7.894934   -1.253714
  H      3.826781    7.568284    0.474268
  C      2.206189    8.832605   -0.238778
  H      1.570048    8.914844   -1.139584
  H      1.520708    8.609629    0.598668
  C      2.916990   10.164338    0.011968
  H      3.538968   10.120938    0.922877
  H      3.582459   10.428329   -0.828333
  C      5.514547   -0.173963    0.051006
  H      6.582925   -0.241351    0.113496
  H     -0.254488   -7.199571    0.184421
  H      2.197279   10.989323    0.139374
  H     -0.997339    0.084218   -0.311252

 Total Charge           Charge          ....    0
 Multiplicity           Mult            ....    2
 Number of Electrons    NEL             ....  141
 Basis Dimension        Dim             ....  401

ORBITAL ENERGIES
----------------
                 SPIN UP ORBITALS
  NO   OCC          E(Eh)            E(eV)
   0   1.0000     -10.205265      -277.6994
   1   1.0000     -10.195730      -277.4399
   2   1.0000     -10.192138      -277.3422
   3   1.0000     -10.187655      -277.2202
   4   1.0000     -10.186855      -277.1984
   5   1.0000     -10.186399      -277.1860
   6   1.0000     -10.185096      -277.1505
   7   1.0000     -10.184091      -277.1232
   8   1.0000     -10.183484      -277.1067
   9   1.0000     -10.182729      -277.0861
  10   1.0000     -10.182069      -277.0682
  11   1.0000     -10.181385      -277.0496
  12   1.0000     -10.181381      -277.0495
  13   1.0000     -10.181152      -277.0432
  14   1.0000     -10.181129      -277.0426
  15   1.0000     -10.180738      -277.0320
  16   1.0000     -10.179308      -276.9931
  17   1.0000     -10.175701      -276.8949
  18   1.0000     -10.173847      -276.8445
  19   1.0000      -0.863632       -23.5006
  20   1.0000      -0.813186       -22.1279
  21   1.0000      -0.803402       -21.8617
  22   1.0000      -0.784573       -21.3493
  23   1.0000      -0.776578       -21.1318
  24   1.0000      -0.758559       -20.6414
  25   1.0000      -0.731688       -19.9103
  26   1.0000      -0.721265       -19.6266
  27   1.0000      -0.705031       -19.1849
  28   1.0000      -0.672358       -18.2958
  29   1.0000      -0.639180       -17.3930
  30   1.0000      -0.617996       -16.8165
  31   1.0000      -0.609300       -16.5799
  32   1.0000      -0.584548       -15.9064
  33   1.0000      -0.577375       -15.7112
  34   1.0000      -0.561629       -15.2827
  35   1.0000      -0.559920       -15.2362
  36   1.0000      -0.525154       -14.2902
  37   1.0000      -0.493270       -13.4226
  38   1.0000      -0.470385       -12.7998
  39   1.0000      -0.470106       -12.7922
  40   1.0000      -0.467115       -12.7108
  41   1.0000      -0.459849       -12.5131
  42   1.0000      -0.453951       -12.3526
  43   1.0000      -0.430258       -11.7079
  44   1.0000      -0.426997       -11.6192
  45   1.0000      -0.422265       -11.4904
  46   1.0000      -0.419059       -11.4032
  47   1.0000      -0.412985       -11.2379
  48   1.0000      -0.406595       -11.0640
  49   1.0000      -0.405043       -11.0218
  50   1.0000      -0.383815       -10.4441
  51   1.0000      -0.379685       -10.3317
  52   1.0000      -0.374679       -10.1955
  53   1.0000      -0.363526        -9.8920
  54   1.0000      -0.361773        -9.8444
  55   1.0000      -0.353826        -9.6281
  56   1.0000      -0.349243        -9.5034
  57   1.0000      -0.347260        -9.4494
  58   1.0000      -0.333606        -9.0779
  59   1.0000      -0.330667        -8.9979
  60   1.0000      -0.327844        -8.9211
  61   1.0000      -0.325692        -8.8625
  62   1.0000      -0.323593        -8.8054
  63   1.0000      -0.322571        -8.7776
  64   1.0000      -0.321146        -8.7388
  65   1.0000      -0.313031        -8.5180
  66   1.0000      -0.298416        -8.1203
  67   1.0000      -0.270280        -7.3547
  68   1.0000      -0.240799        -6.5525
  69   1.0000      -0.222500        -6.0545
  70   1.0000      -0.180770        -4.9190
  71   0.0000      -0.029950        -0.8150
  72   0.0000       0.002621         0.0713
  73   0.0000       0.049789         1.3548
  74   0.0000       0.062049         1.6884
  75   0.0000       0.064739         1.7616

                 SPIN DOWN ORBITALS
  NO   OCC          E(Eh)            E(eV)
   0   1.0000     -10.205258      -277.6992
   1   1.0000     -10.195738      -277.4401
   2   1.0000     -10.192133      -277.3420
   3   1.0000     -10.187655      -277.2202
   4   1.0000     -10.186856      -277.1984
   5   1.0000     -10.186402      -277.1861
   6   1.0000     -10.185098      -277.1506
   7   1.0000     -10.184085      -277.1230
   8   1.0000     -10.183628      -277.1106
   9   1.0000     -10.183470      -277.1063
  10   1.0000     -10.182069      -277.0682
  11   1.0000     -10.181672      -277.0574
  12   1.0000     -10.181383      -277.0495
  13   1.0000     -10.181381      -277.0495
  14   1.0000     -10.180884      -277.0359
  15   1.0000     -10.179032      -276.9856
  16   1.0000     -10.175701      -276.8949
  17   1.0000     -10.173836      -276.8442
  18   1.0000     -10.167275      -276.6656
  19   1.0000      -0.863610       -23.5000
  20   1.0000      -0.811279       -22.0760
  21   1.0000      -0.797515       -21.7015
  22   1.0000      -0.783328       -21.3154
  23   1.0000      -0.776451       -21.1283
  24   1.0000      -0.756974       -20.5983
  25   1.0000      -0.727225       -19.7888
  26   1.0000      -0.721262       -19.6265
  27   1.0000      -0.701700       -19.0942
  28   1.0000      -0.671618       -18.2756
  29   1.0000      -0.638083       -17.3631
  30   1.0000      -0.617438       -16.8013
  31   1.0000      -0.607082       -16.5195
  32   1.0000      -0.583282       -15.8719
  33   1.0000      -0.576741       -15.6939
  34   1.0000      -0.559693       -15.2300
  35   1.0000      -0.546080       -14.8596
  36   1.0000      -0.524851       -14.2819
  37   1.0000      -0.492945       -13.4137
  38   1.0000      -0.470314       -12.7979
  39   1.0000      -0.468156       -12.7392
  40   1.0000      -0.463829       -12.6214
  41   1.0000      -0.459533       -12.5045
  42   1.0000      -0.452049       -12.3009
  43   1.0000      -0.427817       -11.6415
  44   1.0000      -0.425338       -11.5740
  45   1.0000      -0.421690       -11.4748
  46   1.0000      -0.418891       -11.3986
  47   1.0000      -0.412700       -11.2301
  48   1.0000      -0.403287       -10.9740
  49   1.0000      -0.399488       -10.8706
  50   1.0000      -0.381679       -10.3860
  51   1.0000      -0.376507       -10.2453
  52   1.0000      -0.373935       -10.1753
  53   1.0000      -0.362626        -9.8676
  54   1.0000      -0.360159        -9.8004
  55   1.0000      -0.352931        -9.6037
  56   1.0000      -0.347753        -9.4628
  57   1.0000      -0.345838        -9.4107
  58   1.0000      -0.332586        -9.0501
  59   1.0000      -0.328640        -8.9427
  60   1.0000      -0.326416        -8.8822
  61   1.0000      -0.324920        -8.8415
  62   1.0000      -0.323300        -8.7974
  63   1.0000      -0.321863        -8.7583
  64   1.0000      -0.319763        -8.7012
  65   1.0000      -0.310484        -8.4487
  66   1.0000      -0.298380        -8.1193
  67   1.0000      -0.270273        -7.3545
  68   1.0000      -0.240744        -6.5510
  69   1.0000      -0.222435        -6.0528
  70   0.0000      -0.036209        -0.9853
  71   0.0000      -0.029727        -0.8089
  72   0.0000       0.002726         0.0742
  73   0.0000       0.049837         1.3561
  74   0.0000       0.062059         1.6887

MULLIKEN ATOMIC CHARGES AND SPIN POPULATIONS
--------------------------------------------
   0 C :    0.620123   -0.000082
   1 C :    0.028988   -0.000217
   2 C :   -0.026397    0.000352
   3 C :    0.029456   -0.000196
   4 C :   -0.058993    0.000404
   5 C :   -0.072514   -0.000363
   6 C :    0.022328    0.000406
   7 H :   -0.055082    0.000009
   8 H :   -0.043633   -0.000016
   9 C :    0.033818   -0.000028
  10 H :    0.023674    0.000015
  11 H :    0.025942    0.000015
  12 C :   -0.039397    0.000001
  13 H :    0.015795   -0.000000
  14 H :    0.018011    0.000001
  15 C :   -0.025242    0.000000
  16 H :    0.005033    0.000000
  17 H :    0.005045    0.000000
  18 C :    0.000981   -0.000000
  19 H :    0.017379    0.000000
  20 H :    0.017672    0.000000
  21 C :    0.045431    0.001115
  22 H :    0.030986    0.000159
  23 H :    0.030446    0.000262
  24 C :   -0.041982    0.008368
  25 H :    0.016840   -0.000916
  26 H :    0.018379    0.002827
  27 C :    0.066896   -0.064721
  28 H :    0.006709    0.018358
  29 H :    0.014305    0.058881
  30 C :   -0.113492    0.990218
  31 H :   -0.017722   -0.039620
  32 C :    0.040385   -0.064683
  33 H :    0.013226    0.059385
  34 H :    0.004263    0.017062
  35 C :   -0.045211    0.009267
  36 H :    0.007674   -0.001021
  37 H :    0.008518    0.003035
  38 C :   -0.002981    0.001479
  39 H :    0.016375    0.000148
  40 H :    0.016157    0.000208
  41 C :   -0.595645    0.000114
  42 H :   -0.031543   -0.000005
  43 H :    0.012571   -0.000000
  44 H :    0.012090   -0.000228
  45 H :   -0.055664    0.000007
Sum of atomic charges         :    0.0000000

LOEWDIN ATOMIC CHARGES AND SPIN POPULATIONS
-------------------------------------------
   0 C :   -0.001158   -0.000021
   1 C :   -0.018323   -0.000128
   2 C :   -0.027328    0.000265
   3 C :   -0.005938   -0.000109
   4 C :   -0.056855    0.000287
   5 C :   -0.005973   -0.000188
   6 C :   -0.029190    0.000310
   7 H :    0.027576    0.000001
   8 H :    0.025973    0.000013
   9 C :   -0.035760    0.000002
  10 H :    0.034569    0.000011
  11 H :    0.035371    0.000012
  12 C :   -0.044068    0.000000
  13 H :    0.024871   -0.000000
  14 H :    0.024733    0.000000
  15 C :   -0.047631    0.000000
  16 H :    0.023530    0.000000
  17 H :    0.023506    0.000000
  18 C :   -0.067554   -0.000000
  19 H :    0.025338    0.000000
  20 H :    0.025410    0.000000
  21 C :   -0.035466    0.000871
  22 H :    0.039004    0.000191
  23 H :    0.038383    0.000617
  24 C :   -0.039673    0.007463
  25 H :    0.024351   -0.000295
  26 H :    0.024324    0.001733
  27 C :   -0.057093    0.009494
  28 H :    0.028635    0.014414
  29 H :    0.030927    0.047120
  30 C :   -0.010215    0.830077
  31 H :    0.006265    0.006038
  32 C :   -0.061043    0.009294
  33 H :    0.029846    0.047497
  34 H :    0.027278    0.013355
  35 C :   -0.046939    0.008439
  36 H :    0.023749   -0.000332
  37 H :    0.023589    0.001935
  38 C :   -0.068828    0.000946
  39 H :    0.024956    0.000183
  40 H :    0.024561    0.000473
  41 C :   -0.057490    0.000098
  42 H :    0.021360    0.000000
  43 H :    0.027350   -0.000000
  44 H :    0.027117   -0.000064
  45 H :    0.023955   -0.000001

  Mayer bond orders larger than 0.100000
B(  0-C ,  4-C ) :   0.9077 B(  0-C , 41-C ) :   2.1413 B(  1-C ,  2-C ) :   1.4221
B(  1-C ,  6-C ) :   1.4308 B(  1-C , 45-H ) :   0.9331 B(  2-C ,  3-C ) :   1.4266
B(  2-C ,  9-C ) :   1.0450 B(  3-C ,  4-C ) :   1.3927 B(  3-C ,  7-H ) :   0.9276
B(  4-C ,  5-C ) :   1.4098 B(  5-C ,  6-C ) :   1.4420 B(  5-C , 21-C ) :   1.0881
B(  6-C ,  8-H ) :   0.9184 B(  9-C , 10-H ) :   0.9148 B(  9-C , 11-H ) :   0.9134
B(  9-C , 12-C ) :   1.1038 B( 12-C , 13-H ) :   0.9320 B( 12-C , 14-H ) :   0.9295
B( 12-C , 15-C ) :   1.0751 B( 15-C , 16-H ) :   0.9414 B( 15-C , 17-H ) :   0.9413
B( 15-C , 18-C ) :   1.1057 B( 18-C , 19-H ) :   0.9665 B( 18-C , 20-H ) :   0.9666
B( 18-C , 43-H ) :   0.9622 B( 21-C , 22-H ) :   0.8984 B( 21-C , 23-H ) :   0.8982
B( 21-C , 24-C ) :   1.0997 B( 24-C , 25-H ) :   0.9287 B( 24-C , 26-H ) :   0.9311
B( 24-C , 27-C ) :   1.0730 B( 27-C , 28-H ) :   0.9244 B( 27-C , 29-H ) :   0.9113
B( 27-C , 30-C ) :   1.0717 B( 30-C , 31-H ) :   0.9586 B( 30-C , 32-C ) :   1.0800
B( 32-C , 33-H ) :   0.9156 B( 32-C , 34-H ) :   0.9283 B( 32-C , 35-C ) :   1.0709
B( 35-C , 36-H ) :   0.9445 B( 35-C , 37-H ) :   0.9474 B( 35-C , 38-C ) :   1.1048
B( 38-C , 39-H ) :   0.9667 B( 38-C , 40-H ) :   0.9664 B( 38-C , 44-H ) :   0.9628
B( 41-C , 42-H ) :   1.1165

FINAL SINGLE POINT ENERGY      -739.695449579452

DIPOLE MOMENT
-------------
                                X             Y             Z
Electronic contribution:      4.21616     -11.00152      -0.14573
Nuclear contribution   :     -4.42748      11.00334       0.09892
                        -----------------------------------------
Total Dipole Moment    :     -0.21133       0.00182      -0.04681
                        -----------------------------------------
Magnitude (a.u.)       :      0.21646
Magnitude (Debye)      :      0.55019

Rotational constants in cm-1:     0.034344     0.002975     0.002760
Rotational constants in MHz :  1029.618259    89.197423    82.731260

CHEMICAL SHIELDING SUMMARY (ppm)  --  Orbital contribution
----------------------------------------------------------

  Nucleus  Element    Isotropic     Anisotropy
  -------  -------  ------------   ------------
      7       H           24.197         12.363
      8       H           24.422         10.167
     10       H           28.767          5.494
     11       H           28.726          5.295
     13       H           29.826          4.359
     14       H           29.745          4.683
     16       H           29.966          6.610
     17       H           29.968          6.665
     19       H           30.329          7.777
     20       H           30.327          7.753
     22       H           28.629          5.570
     23       H           28.562          5.889
     25       H           29.659          5.192
     26       H           29.590          4.836
     28       H           29.236          4.534
     29       H           28.855          5.058
     31       H           27.205          8.236
     33       H           28.985          5.350
     34       H           29.373          3.642
     36       H           29.880          6.469
     37       H           29.834          6.081
     39       H           30.445          7.834
     40       H           30.386          7.943
     42       H           28.251         10.605
     43       H           30.134         10.175
     44       H           30.190          9.790
     45       H           24.408          8.364

                             ****ORCA TERMINATED NORMALLY****
TOTAL RUN TIME: 0 days 0 hours 54 minutes 18 seconds 211 msec
