                         Program Version 5.0.4 -  RELEASE  -
|  1> ! B3LYP cc-pVDZ AUTOAUX
|  2> %pal nprocs 16 end
|  3> *XYZFile 0 2 opt.xyz
|  4> %EPRNMR
|  5>         GTENSOR   TRUE
|  6>         NUCLEI    = ALL H {SHIFT, AISO, ADIP, AORB}
|  7>         ORI       CenterOfElCharge
|  8> END
|  9>
| 10>                          ****END OF INPUT****

CARTESIAN COORDINATES (ANGSTROEM)
---------------------------------
  C      4.303993   -0.099044   -0.019986
  C      0.095379    0.041847   -0.250332
  C      0.727206   -1.205028   -0.115214
  C      2.122929   -1.212411   -0.043556
  C      2.874308   -0.020154   -0.101380
  C      2.228091    1.234157   -0.236580
  C      0.828539    1.228178   -0.309060
  H      2.668303   -2.150773    0.059972
  H      0.289670    2.170928   -0.414345
  C     -0.115666   -2.468406   -0.049589
  H     -0.784199   -2.484013   -0.930720
  H     -0.791676   -2.389160    0.822893
  C      0.636247   -3.799827    0.026362
  H      1.309912   -3.896981   -0.845049
  H      1.286422   -3.811728    0.920477
  C     -0.301843   -5.011708    0.074983
  H     -0.977280   -4.914794    0.945461
  H     -0.955453   -5.002515   -0.817199
  C      0.442407   -6.347212    0.151027
  H      1.079450   -6.399990    1.050835
  H      1.097598   -6.491215   -0.725436
  C      3.053158    2.505621   -0.293993
  H      3.669351    2.559915    0.622764
  H      3.788282    2.406081   -1.113865
  C      2.286495    3.819607   -0.461501
  H      1.683582    3.789097   -1.387366
  H      1.571864    3.952366    0.370090
  C      3.218416    5.039823   -0.514112
  H      3.844016    5.071239    0.400108
  H      3.946453    4.894522   -1.346232
  C      2.505214    6.343014   -0.678289
  H      1.561879    6.348293   -1.239679
  C      3.174852    7.653563   -0.417869
  H      3.874748    7.897348   -1.251684
  H      3.824892    7.567710    0.475950
  C      2.204128    8.830751   -0.238803
  H      1.570192    8.913846   -1.141092
  H      1.516816    8.605008    0.596374
  C      2.912091   10.163176    0.016523
  H      3.531850   10.118821    0.928896
  H      3.579244   10.430027   -0.821537
  C      5.515728   -0.175457    0.048577
  H      6.584104   -0.243307    0.110603
  H     -0.257066   -7.198161    0.187741
  H      2.190725   10.986727    0.143833
  H     -0.996407    0.085398   -0.311066

 Total Charge           Charge          ....    0
 Multiplicity           Mult            ....    2
 Number of Electrons    NEL             ....  141
 Basis Dimension        Dim             ....  401

ORBITAL ENERGIES
----------------
                 SPIN UP ORBITALS
  NO   OCC          E(Eh)            E(eV)
   0   1.0000     -10.205347      -277.7016
   1   1.0000     -10.195780      -277.4413
   2   1.0000     -10.191989      -277.3381
   3   1.0000     -10.187601      -277.2187
   4   1.0000     -10.186892      -277.1994
   5   1.0000     -10.186269      -277.1825
   6   1.0000     -10.185022      -277.1485
   7   1.0000     -10.184052      -277.1221
   8   1.0000     -10.183507      -277.1073
   9   1.0000     -10.182743      -277.0865
  10   1.0000     -10.182078      -277.0684
  11   1.0000     -10.181439      -277.0510
  12   1.0000     -10.181369      -277.0491
  13   1.0000     -10.181168      -277.0437
  14   1.0000     -10.181119      -277.0423
  15   1.0000     -10.180761      -277.0326
  16   1.0000     -10.179317      -276.9933
  17   1.0000     -10.175715      -276.8953
  18   1.0000     -10.173856      -276.8447
  19   1.0000      -0.863614       -23.5001
  20   1.0000      -0.813171       -22.1275
  21   1.0000      -0.803395       -21.8615
  22   1.0000      -0.784569       -21.3492
  23   1.0000      -0.776587       -21.1320
  24   1.0000      -0.758550       -20.6412
  25   1.0000      -0.731676       -19.9099
  26   1.0000      -0.721272       -19.6268
  27   1.0000      -0.705020       -19.1846
  28   1.0000      -0.672367       -18.2960
  29   1.0000      -0.639167       -17.3926
  30   1.0000      -0.617992       -16.8164
  31   1.0000      -0.609288       -16.5796
  32   1.0000      -0.584551       -15.9064
  33   1.0000      -0.577374       -15.7111
  34   1.0000      -0.561608       -15.2821
  35   1.0000      -0.559902       -15.2357
  36   1.0000      -0.525164       -14.2904
  37   1.0000      -0.493270       -13.4226
  38   1.0000      -0.470379       -12.7997
  39   1.0000      -0.470121       -12.7926
  40   1.0000      -0.467112       -12.7108
  41   1.0000      -0.459831       -12.5126
  42   1.0000      -0.453962       -12.3529
  43   1.0000      -0.430250       -11.7077
  44   1.0000      -0.426977       -11.6186
  45   1.0000      -0.422254       -11.4901
  46   1.0000      -0.419035       -11.4025
  47   1.0000      -0.412973       -11.2376
  48   1.0000      -0.406604       -11.0643
  49   1.0000      -0.405034       -11.0215
  50   1.0000      -0.383814       -10.4441
  51   1.0000      -0.379706       -10.3323
  52   1.0000      -0.374663       -10.1951
  53   1.0000      -0.363531        -9.8922
  54   1.0000      -0.361744        -9.8435
  55   1.0000      -0.353809        -9.6276
  56   1.0000      -0.349246        -9.5035
  57   1.0000      -0.347246        -9.4490
  58   1.0000      -0.333604        -9.0778
  59   1.0000      -0.330668        -8.9979
  60   1.0000      -0.327828        -8.9206
  61   1.0000      -0.325682        -8.8623
  62   1.0000      -0.323594        -8.8054
  63   1.0000      -0.322576        -8.7777
  64   1.0000      -0.321148        -8.7389
  65   1.0000      -0.313036        -8.5181
  66   1.0000      -0.298424        -8.1205
  67   1.0000      -0.270306        -7.3554
  68   1.0000      -0.240763        -6.5515
  69   1.0000      -0.222498        -6.0545
  70   1.0000      -0.180749        -4.9184
  71   0.0000      -0.029952        -0.8150
  72   0.0000       0.002665         0.0725
  73   0.0000       0.049762         1.3541
  74   0.0000       0.062055         1.6886
  75   0.0000       0.064732         1.7614

                 SPIN DOWN ORBITALS
  NO   OCC          E(Eh)            E(eV)
   0   1.0000     -10.205340      -277.7014
   1   1.0000     -10.195788      -277.4415
   2   1.0000     -10.191984      -277.3380
   3   1.0000     -10.187601      -277.2187
   4   1.0000     -10.186892      -277.1994
   5   1.0000     -10.186271      -277.1825
   6   1.0000     -10.185024      -277.1486
   7   1.0000     -10.184046      -277.1220
   8   1.0000     -10.183641      -277.1109
   9   1.0000     -10.183492      -277.1069
  10   1.0000     -10.182078      -277.0684
  11   1.0000     -10.181694      -277.0580
  12   1.0000     -10.181437      -277.0510
  13   1.0000     -10.181369      -277.0491
  14   1.0000     -10.180870      -277.0356
  15   1.0000     -10.179041      -276.9858
  16   1.0000     -10.175715      -276.8953
  17   1.0000     -10.173845      -276.8444
  18   1.0000     -10.167296      -276.6662
  19   1.0000      -0.863591       -23.4995
  20   1.0000      -0.811261       -22.0755
  21   1.0000      -0.797509       -21.7013
  22   1.0000      -0.783323       -21.3153
  23   1.0000      -0.776460       -21.1285
  24   1.0000      -0.756962       -20.5980
  25   1.0000      -0.727214       -19.7885
  26   1.0000      -0.721269       -19.6267
  27   1.0000      -0.701687       -19.0939
  28   1.0000      -0.671626       -18.2759
  29   1.0000      -0.638069       -17.3627
  30   1.0000      -0.617434       -16.8012
  31   1.0000      -0.607069       -16.5192
  32   1.0000      -0.583283       -15.8719
  33   1.0000      -0.576743       -15.6940
  34   1.0000      -0.559677       -15.2296
  35   1.0000      -0.546056       -14.8589
  36   1.0000      -0.524860       -14.2822
  37   1.0000      -0.492945       -13.4137
  38   1.0000      -0.470296       -12.7974
  39   1.0000      -0.468162       -12.7393
  40   1.0000      -0.463843       -12.6218
  41   1.0000      -0.459513       -12.5040
  42   1.0000      -0.452060       -12.3012
  43   1.0000      -0.427808       -11.6412
  44   1.0000      -0.425321       -11.5736
  45   1.0000      -0.421681       -11.4745
  46   1.0000      -0.418867       -11.3979
  47   1.0000      -0.412685       -11.2297
  48   1.0000      -0.403275       -10.9737
  49   1.0000      -0.399512       -10.8713
  50   1.0000      -0.381674       -10.3859
  51   1.0000      -0.376526       -10.2458
  52   1.0000      -0.373917       -10.1748
  53   1.0000      -0.362629        -9.8676
  54   1.0000      -0.360133        -9.7997
  55   1.0000      -0.352913        -9.6032
  56   1.0000      -0.347760        -9.4630
  57   1.0000      -0.345826        -9.4104
  58   1.0000      -0.332585        -9.0501
  59   1.0000      -0.328643        -8.9428
  60   1.0000      -0.326400        -8.8818
  61   1.0000      -0.324904        -8.8411
  62   1.0000      -0.323295        -8.7973
  63   1.0000      -0.321855        -8.7581
  64   1.0000      -0.319786        -8.7018
  65   1.0000      -0.310488        -8.4488
  66   1.0000      -0.298388        -8.1196
  67   1.0000      -0.270300        -7.3552
  68   1.0000      -0.240708        -6.5500
  69   1.0000      -0.222433        -6.0527
  70   0.0000      -0.036184        -0.9846
  71   0.0000      -0.029730        -0.8090
  72   0.0000       0.002769         0.0753
  73   0.0000       0.049810         1.3554
  74   0.0000       0.062065         1.6889

MULLIKEN ATOMIC CHARGES AND SPIN POPULATIONS
--------------------------------------------
   0 C :    0.620216   -0.000076
   1 C :    0.028925   -0.000208
   2 C :   -0.026357    0.000343
   3 C :    0.029522   -0.000188
   4 C :   -0.059046    0.000395
   5 C :   -0.072529   -0.000351
   6 C :    0.022395    0.000396
   7 H :   -0.055108    0.000008
   8 H :   -0.043630   -0.000016
   9 C :    0.033760   -0.000027
  10 H :    0.023674    0.000014
  11 H :    0.025907    0.000015
  12 C :   -0.039355    0.000001
  13 H :    0.015804   -0.000000
  14 H :    0.018001    0.000001
  15 C :   -0.025271    0.000000
  16 H :    0.005035    0.000000
  17 H :    0.005046    0.000000
  18 C :    0.000981   -0.000000
  19 H :    0.017382    0.000000
  20 H :    0.017675    0.000000
  21 C :    0.045466    0.001138
  22 H :    0.030989    0.000158
  23 H :    0.030435    0.000261
  24 C :   -0.042067    0.008391
  25 H :    0.016820   -0.000915
  26 H :    0.018382    0.002843
  27 C :    0.067171   -0.064647
  28 H :    0.006668    0.018265
  29 H :    0.014359    0.058796
  30 C :   -0.113849    0.990249
  31 H :   -0.017734   -0.039585
  32 C :    0.040605   -0.064618
  33 H :    0.013261    0.059298
  34 H :    0.004275    0.017042
  35 C :   -0.045296    0.009256
  36 H :    0.007690   -0.001016
  37 H :    0.008502    0.003046
  38 C :   -0.002988    0.001493
  39 H :    0.016375    0.000148
  40 H :    0.016160    0.000207
  41 C :   -0.595727    0.000107
  42 H :   -0.031527   -0.000005
  43 H :    0.012575   -0.000000
  44 H :    0.012096   -0.000227
  45 H :   -0.055667    0.000006
Sum of atomic charges         :   -0.0000000

LOEWDIN ATOMIC CHARGES AND SPIN POPULATIONS
-------------------------------------------
   0 C :   -0.001147   -0.000018
   1 C :   -0.018311   -0.000123
   2 C :   -0.027269    0.000260
   3 C :   -0.005890   -0.000103
   4 C :   -0.056916    0.000283
   5 C :   -0.005997   -0.000181
   6 C :   -0.029198    0.000304
   7 H :    0.027563    0.000001
   8 H :    0.025976    0.000013
   9 C :   -0.035774    0.000002
  10 H :    0.034569    0.000011
  11 H :    0.035361    0.000012
  12 C :   -0.044071    0.000000
  13 H :    0.024870   -0.000000
  14 H :    0.024735    0.000000
  15 C :   -0.047635    0.000000
  16 H :    0.023532    0.000000
  17 H :    0.023506    0.000000
  18 C :   -0.067563   -0.000000
  19 H :    0.025341    0.000000
  20 H :    0.025412    0.000000
  21 C :   -0.035477    0.000884
  22 H :    0.039009    0.000190
  23 H :    0.038372    0.000616
  24 C :   -0.039659    0.007512
  25 H :    0.024353   -0.000294
  26 H :    0.024318    0.001743
  27 C :   -0.057058    0.009530
  28 H :    0.028622    0.014344
  29 H :    0.030926    0.047065
  30 C :   -0.010244    0.830085
  31 H :    0.006262    0.006049
  32 C :   -0.061023    0.009329
  33 H :    0.029845    0.047437
  34 H :    0.027280    0.013346
  35 C :   -0.046927    0.008449
  36 H :    0.023751   -0.000330
  37 H :    0.023582    0.001942
  38 C :   -0.068835    0.000954
  39 H :    0.024954    0.000183
  40 H :    0.024564    0.000472
  41 C :   -0.057500    0.000093
  42 H :    0.021367    0.000000
  43 H :    0.027352   -0.000000
  44 H :    0.027114   -0.000064
  45 H :    0.023959   -0.000001

  Mayer bond orders larger than 0.100000
B(  0-C ,  4-C ) :   0.9076 B(  0-C , 41-C ) :   2.1412 B(  1-C ,  2-C ) :   1.4221
B(  1-C ,  6-C ) :   1.4308 B(  1-C , 45-H ) :   0.9331 B(  2-C ,  3-C ) :   1.4267
B(  2-C ,  9-C ) :   1.0450 B(  3-C ,  4-C ) :   1.3927 B(  3-C ,  7-H ) :   0.9275
B(  4-C ,  5-C ) :   1.4098 B(  5-C ,  6-C ) :   1.4420 B(  5-C , 21-C ) :   1.0881
B(  6-C ,  8-H ) :   0.9184 B(  9-C , 10-H ) :   0.9148 B(  9-C , 11-H ) :   0.9134
B(  9-C , 12-C ) :   1.1038 B( 12-C , 13-H ) :   0.9320 B( 12-C , 14-H ) :   0.9295
B( 12-C , 15-C ) :   1.0751 B( 15-C , 16-H ) :   0.9414 B( 15-C , 17-H ) :   0.9413
B( 15-C , 18-C ) :   1.1057 B( 18-C , 19-H ) :   0.9665 B( 18-C , 20-H ) :   0.9666
B( 18-C , 43-H ) :   0.9622 B( 21-C , 22-H ) :   0.8984 B( 21-C , 23-H ) :   0.8982
B( 21-C , 24-C ) :   1.0997 B( 24-C , 25-H ) :   0.9288 B( 24-C , 26-H ) :   0.9311
B( 24-C , 27-C ) :   1.0730 B( 27-C , 28-H ) :   0.9244 B( 27-C , 29-H ) :   0.9113
B( 27-C , 30-C ) :   1.0717 B( 30-C , 31-H ) :   0.9586 B( 30-C , 32-C ) :   1.0800
B( 32-C , 33-H ) :   0.9156 B( 32-C , 34-H ) :   0.9283 B( 32-C , 35-C ) :   1.0709
B( 35-C , 36-H ) :   0.9445 B( 35-C , 37-H ) :   0.9474 B( 35-C , 38-C ) :   1.1048
B( 38-C , 39-H ) :   0.9667 B( 38-C , 40-H ) :   0.9664 B( 38-C , 44-H ) :   0.9628
B( 41-C , 42-H ) :   1.1165

FINAL SINGLE POINT ENERGY      -739.695447486749

DIPOLE MOMENT
-------------
                                X             Y             Z
Electronic contribution:      4.23417     -11.00193      -0.16397
Nuclear contribution   :     -4.44592      11.00378       0.11775
                        -----------------------------------------
Total Dipole Moment    :     -0.21175       0.00185      -0.04621
                        -----------------------------------------
Magnitude (a.u.)       :      0.21674
Magnitude (Debye)      :      0.55091

Rotational constants in cm-1:     0.034304     0.002976     0.002760
Rotational constants in MHz :  1028.401036    89.219646    82.746430

CHEMICAL SHIELDING SUMMARY (ppm)  --  Orbital contribution
----------------------------------------------------------

  Nucleus  Element    Isotropic     Anisotropy
  -------  -------  ------------   ------------
      7       H           25.727         10.183
      8       H           74.241         33.883
     10       H           31.849         18.704
     11       H           34.402         19.169
     13       H           63.920         12.833
     14       H           64.869         12.018
     16       H            7.332         20.096
     17       H            5.987         20.192
     19       H           12.037         14.235
     20       H           10.486         14.738
     22       H           78.412         42.417
     23       H           74.759         40.735
     25       H           85.642         15.314
     26       H           89.519          6.950
     28       H           64.134         17.318
     29       H           59.129         11.478
     31       H           68.232          6.885
     33       H            5.135         23.711
     34       H           46.837          9.887
     36       H           24.482         13.197
     37       H           65.766          6.128
     39       H           -3.413         15.277
     40       H          -40.944         24.729
     42       H          -33.675         10.748
     43       H         -103.663          5.494
     44       H          -89.389         29.338
     45       H           28.735         10.796

                             ****ORCA TERMINATED NORMALLY****
TOTAL RUN TIME: 0 days 0 hours 54 minutes 33 seconds 436 msec
