                         Program Version 5.0.4 -  RELEASE  -
|  1> ! B3LYP cc-pVDZ AUTOAUX
|  2> %pal nprocs 16 end
|  3> *XYZFile 0 2 opt_cc-pVDZ.xyz
|  4> %EPRNMR
|  5>         GTENSOR   TRUE
|  6>         NUCLEI    = ALL H {SHIFT, AISO, ADIP, AORB}
|  7>         ORI       CenterOfElCharge
|  8> END
|  9>
| 10>                          ****END OF INPUT****

CARTESIAN COORDINATES (ANGSTROEM)
---------------------------------
  C      4.302806   -0.098134   -0.018100
  C      0.094380    0.040825   -0.250086
  C      0.726644   -1.205804   -0.114693
  C      2.122363   -1.212548   -0.042464
  C      2.873074   -0.019871   -0.100081
  C      2.226449    1.234162   -0.235562
  C      0.826888    1.227637   -0.308566
  H      2.668260   -2.150562    0.061344
  H      0.287878    2.170265   -0.413989
  C     -0.115757   -2.469504   -0.049398
  H     -0.784433   -2.484996   -0.930401
  H     -0.791472   -2.391005    0.823364
  C      0.636859   -3.800618    0.025685
  H      1.310681   -3.896765   -0.845718
  H      1.286960   -3.812799    0.919851
  C     -0.300551   -5.013047    0.073307
  H     -0.976195   -4.917196    0.943743
  H     -0.954030   -5.003610   -0.818966
  C      0.444482   -6.348174    0.148493
  H      1.081377   -6.401246    1.048389
  H      1.099929   -6.491118   -0.727952
  C      3.051057    2.505911   -0.292904
  H      3.668167    2.559803    0.623235
  H      3.785388    2.407214   -1.113607
  C      2.283852    3.819752   -0.458943
  H      1.680300    3.789813   -1.384400
  H      1.569824    3.951823    0.373297
  C      3.215454    5.040204   -0.511554
  H      3.842152    5.071039    0.401948
  H      3.943060    4.895111   -1.344183
  C      2.502381    6.343514   -0.674882
  H      1.558197    6.349126   -1.234730
  C      3.174480    7.653419   -0.417957
  H      3.872970    7.894934   -1.253714
  H      3.826781    7.568284    0.474268
  C      2.206189    8.832605   -0.238778
  H      1.570048    8.914844   -1.139584
  H      1.520708    8.609629    0.598668
  C      2.916990   10.164338    0.011968
  H      3.538968   10.120938    0.922877
  H      3.582459   10.428329   -0.828333
  C      5.514547   -0.173963    0.051006
  H      6.582925   -0.241351    0.113496
  H     -0.254488   -7.199571    0.184421
  H      2.197279   10.989323    0.139374
  H     -0.997339    0.084218   -0.311252

 Total Charge           Charge          ....    0
 Multiplicity           Mult            ....    2
 Number of Electrons    NEL             ....  141
 Basis Dimension        Dim             ....  401

ORBITAL ENERGIES
----------------
                 SPIN UP ORBITALS
  NO   OCC          E(Eh)            E(eV)
   0   1.0000     -10.205271      -277.6995
   1   1.0000     -10.195723      -277.4397
   2   1.0000     -10.192116      -277.3416
   3   1.0000     -10.187646      -277.2199
   4   1.0000     -10.186850      -277.1983
   5   1.0000     -10.186369      -277.1852
   6   1.0000     -10.185083      -277.1502
   7   1.0000     -10.184077      -277.1228
   8   1.0000     -10.183481      -277.1066
   9   1.0000     -10.182734      -277.0863
  10   1.0000     -10.182070      -277.0682
  11   1.0000     -10.181409      -277.0502
  12   1.0000     -10.181379      -277.0494
  13   1.0000     -10.181157      -277.0434
  14   1.0000     -10.181125      -277.0425
  15   1.0000     -10.180744      -277.0321
  16   1.0000     -10.179311      -276.9931
  17   1.0000     -10.175704      -276.8950
  18   1.0000     -10.173848      -276.8445
  19   1.0000      -0.863623       -23.5004
  20   1.0000      -0.813183       -22.1278
  21   1.0000      -0.803402       -21.8617
  22   1.0000      -0.784571       -21.3493
  23   1.0000      -0.776576       -21.1317
  24   1.0000      -0.758556       -20.6413
  25   1.0000      -0.731687       -19.9102
  26   1.0000      -0.721266       -19.6266
  27   1.0000      -0.705029       -19.1848
  28   1.0000      -0.672356       -18.2957
  29   1.0000      -0.639177       -17.3929
  30   1.0000      -0.617991       -16.8164
  31   1.0000      -0.609298       -16.5798
  32   1.0000      -0.584547       -15.9063
  33   1.0000      -0.577374       -15.7111
  34   1.0000      -0.561631       -15.2827
  35   1.0000      -0.559916       -15.2361
  36   1.0000      -0.525158       -14.2903
  37   1.0000      -0.493269       -13.4225
  38   1.0000      -0.470383       -12.7998
  39   1.0000      -0.470105       -12.7922
  40   1.0000      -0.467109       -12.7107
  41   1.0000      -0.459844       -12.5130
  42   1.0000      -0.453951       -12.3526
  43   1.0000      -0.430258       -11.7079
  44   1.0000      -0.426994       -11.6191
  45   1.0000      -0.422261       -11.4903
  46   1.0000      -0.419056       -11.4031
  47   1.0000      -0.412981       -11.2378
  48   1.0000      -0.406595       -11.0640
  49   1.0000      -0.405042       -11.0218
  50   1.0000      -0.383815       -10.4441
  51   1.0000      -0.379684       -10.3317
  52   1.0000      -0.374676       -10.1955
  53   1.0000      -0.363523        -9.8920
  54   1.0000      -0.361772        -9.8443
  55   1.0000      -0.353823        -9.6280
  56   1.0000      -0.349240        -9.5033
  57   1.0000      -0.347258        -9.4494
  58   1.0000      -0.333606        -9.0779
  59   1.0000      -0.330666        -8.9979
  60   1.0000      -0.327845        -8.9211
  61   1.0000      -0.325689        -8.8624
  62   1.0000      -0.323592        -8.8054
  63   1.0000      -0.322570        -8.7776
  64   1.0000      -0.321145        -8.7388
  65   1.0000      -0.313031        -8.5180
  66   1.0000      -0.298415        -8.1203
  67   1.0000      -0.270285        -7.3548
  68   1.0000      -0.240789        -6.5522
  69   1.0000      -0.222498        -6.0545
  70   1.0000      -0.180773        -4.9191
  71   0.0000      -0.029946        -0.8149
  72   0.0000       0.002631         0.0716
  73   0.0000       0.049785         1.3547
  74   0.0000       0.062050         1.6885
  75   0.0000       0.064738         1.7616

                 SPIN DOWN ORBITALS
  NO   OCC          E(Eh)            E(eV)
   0   1.0000     -10.205264      -277.6994
   1   1.0000     -10.195731      -277.4400
   2   1.0000     -10.192111      -277.3414
   3   1.0000     -10.187646      -277.2200
   4   1.0000     -10.186851      -277.1983
   5   1.0000     -10.186371      -277.1853
   6   1.0000     -10.185085      -277.1502
   7   1.0000     -10.184071      -277.1227
   8   1.0000     -10.183633      -277.1107
   9   1.0000     -10.183467      -277.1062
  10   1.0000     -10.182070      -277.0682
  11   1.0000     -10.181679      -277.0576
  12   1.0000     -10.181408      -277.0502
  13   1.0000     -10.181379      -277.0494
  14   1.0000     -10.180879      -277.0358
  15   1.0000     -10.179035      -276.9856
  16   1.0000     -10.175704      -276.8950
  17   1.0000     -10.173837      -276.8442
  18   1.0000     -10.167282      -276.6658
  19   1.0000      -0.863601       -23.4998
  20   1.0000      -0.811275       -22.0759
  21   1.0000      -0.797516       -21.7015
  22   1.0000      -0.783327       -21.3154
  23   1.0000      -0.776449       -21.1282
  24   1.0000      -0.756970       -20.5982
  25   1.0000      -0.727224       -19.7888
  26   1.0000      -0.721263       -19.6266
  27   1.0000      -0.701698       -19.0942
  28   1.0000      -0.671617       -18.2756
  29   1.0000      -0.638079       -17.3630
  30   1.0000      -0.617433       -16.8012
  31   1.0000      -0.607079       -16.5195
  32   1.0000      -0.583281       -15.8719
  33   1.0000      -0.576741       -15.6939
  34   1.0000      -0.559688       -15.2299
  35   1.0000      -0.546082       -14.8596
  36   1.0000      -0.524854       -14.2820
  37   1.0000      -0.492944       -13.4137
  38   1.0000      -0.470312       -12.7978
  39   1.0000      -0.468150       -12.7390
  40   1.0000      -0.463828       -12.6214
  41   1.0000      -0.459529       -12.5044
  42   1.0000      -0.452050       -12.3009
  43   1.0000      -0.427817       -11.6415
  44   1.0000      -0.425335       -11.5740
  45   1.0000      -0.421686       -11.4747
  46   1.0000      -0.418888       -11.3985
  47   1.0000      -0.412696       -11.2300
  48   1.0000      -0.403287       -10.9740
  49   1.0000      -0.399489       -10.8706
  50   1.0000      -0.381678       -10.3860
  51   1.0000      -0.376507       -10.2453
  52   1.0000      -0.373932       -10.1752
  53   1.0000      -0.362623        -9.8675
  54   1.0000      -0.360157        -9.8004
  55   1.0000      -0.352928        -9.6037
  56   1.0000      -0.347750        -9.4628
  57   1.0000      -0.345836        -9.4107
  58   1.0000      -0.332586        -9.0501
  59   1.0000      -0.328639        -8.9427
  60   1.0000      -0.326415        -8.8822
  61   1.0000      -0.324919        -8.8415
  62   1.0000      -0.323299        -8.7974
  63   1.0000      -0.321860        -8.7583
  64   1.0000      -0.319763        -8.7012
  65   1.0000      -0.310484        -8.4487
  66   1.0000      -0.298379        -8.1193
  67   1.0000      -0.270279        -7.3547
  68   1.0000      -0.240734        -6.5507
  69   1.0000      -0.222433        -6.0527
  70   0.0000      -0.036211        -0.9854
  71   0.0000      -0.029724        -0.8088
  72   0.0000       0.002735         0.0744
  73   0.0000       0.049833         1.3560
  74   0.0000       0.062060         1.6887

MULLIKEN ATOMIC CHARGES AND SPIN POPULATIONS
--------------------------------------------
   0 C :    0.620173   -0.000082
   1 C :    0.028988   -0.000218
   2 C :   -0.026363    0.000353
   3 C :    0.029515   -0.000197
   4 C :   -0.058989    0.000405
   5 C :   -0.072499   -0.000364
   6 C :    0.022337    0.000407
   7 H :   -0.055095    0.000009
   8 H :   -0.043642   -0.000016
   9 C :    0.033825   -0.000028
  10 H :    0.023668    0.000015
  11 H :    0.025936    0.000015
  12 C :   -0.039400    0.000001
  13 H :    0.015794   -0.000000
  14 H :    0.018010    0.000001
  15 C :   -0.025248    0.000000
  16 H :    0.005034    0.000000
  17 H :    0.005045    0.000000
  18 C :    0.000974   -0.000000
  19 H :    0.017381    0.000000
  20 H :    0.017674    0.000000
  21 C :    0.045437    0.001114
  22 H :    0.030981    0.000159
  23 H :    0.030442    0.000262
  24 C :   -0.041968    0.008372
  25 H :    0.016838   -0.000917
  26 H :    0.018377    0.002826
  27 C :    0.066886   -0.064730
  28 H :    0.006711    0.018361
  29 H :    0.014307    0.058883
  30 C :   -0.113500    0.990229
  31 H :   -0.017717   -0.039625
  32 C :    0.040374   -0.064692
  33 H :    0.013230    0.059387
  34 H :    0.004267    0.017065
  35 C :   -0.045213    0.009271
  36 H :    0.007676   -0.001021
  37 H :    0.008519    0.003034
  38 C :   -0.002981    0.001478
  39 H :    0.016375    0.000148
  40 H :    0.016157    0.000208
  41 C :   -0.595782    0.000115
  42 H :   -0.031532   -0.000005
  43 H :    0.012572   -0.000000
  44 H :    0.012091   -0.000228
  45 H :   -0.055669    0.000007
Sum of atomic charges         :   -0.0000000

LOEWDIN ATOMIC CHARGES AND SPIN POPULATIONS
-------------------------------------------
   0 C :   -0.001106   -0.000021
   1 C :   -0.018313   -0.000129
   2 C :   -0.027305    0.000266
   3 C :   -0.005890   -0.000109
   4 C :   -0.056884    0.000288
   5 C :   -0.005972   -0.000189
   6 C :   -0.029185    0.000310
   7 H :    0.027569    0.000001
   8 H :    0.025969    0.000013
   9 C :   -0.035758    0.000002
  10 H :    0.034565    0.000011
  11 H :    0.035368    0.000012
  12 C :   -0.044071    0.000000
  13 H :    0.024871   -0.000000
  14 H :    0.024733    0.000000
  15 C :   -0.047635    0.000000
  16 H :    0.023531    0.000000
  17 H :    0.023506    0.000000
  18 C :   -0.067558   -0.000000
  19 H :    0.025339    0.000000
  20 H :    0.025411    0.000000
  21 C :   -0.035465    0.000870
  22 H :    0.039002    0.000191
  23 H :    0.038380    0.000618
  24 C :   -0.039665    0.007465
  25 H :    0.024350   -0.000296
  26 H :    0.024324    0.001732
  27 C :   -0.057099    0.009489
  28 H :    0.028636    0.014415
  29 H :    0.030928    0.047121
  30 C :   -0.010220    0.830083
  31 H :    0.006267    0.006035
  32 C :   -0.061049    0.009290
  33 H :    0.029848    0.047497
  34 H :    0.027280    0.013356
  35 C :   -0.046939    0.008441
  36 H :    0.023750   -0.000333
  37 H :    0.023589    0.001935
  38 C :   -0.068827    0.000945
  39 H :    0.024956    0.000183
  40 H :    0.024562    0.000473
  41 C :   -0.057572    0.000099
  42 H :    0.021362    0.000000
  43 H :    0.027350   -0.000000
  44 H :    0.027117   -0.000064
  45 H :    0.023950   -0.000001

  Mayer bond orders larger than 0.100000
B(  0-C ,  4-C ) :   0.9077 B(  0-C , 41-C ) :   2.1413 B(  1-C ,  2-C ) :   1.4221
B(  1-C ,  6-C ) :   1.4308 B(  1-C , 45-H ) :   0.9331 B(  2-C ,  3-C ) :   1.4266
B(  2-C ,  9-C ) :   1.0450 B(  3-C ,  4-C ) :   1.3927 B(  3-C ,  7-H ) :   0.9276
B(  4-C ,  5-C ) :   1.4098 B(  5-C ,  6-C ) :   1.4420 B(  5-C , 21-C ) :   1.0881
B(  6-C ,  8-H ) :   0.9184 B(  9-C , 10-H ) :   0.9148 B(  9-C , 11-H ) :   0.9134
B(  9-C , 12-C ) :   1.1038 B( 12-C , 13-H ) :   0.9320 B( 12-C , 14-H ) :   0.9295
B( 12-C , 15-C ) :   1.0751 B( 15-C , 16-H ) :   0.9414 B( 15-C , 17-H ) :   0.9413
B( 15-C , 18-C ) :   1.1057 B( 18-C , 19-H ) :   0.9665 B( 18-C , 20-H ) :   0.9666
B( 18-C , 43-H ) :   0.9622 B( 21-C , 22-H ) :   0.8984 B( 21-C , 23-H ) :   0.8982
B( 21-C , 24-C ) :   1.0997 B( 24-C , 25-H ) :   0.9287 B( 24-C , 26-H ) :   0.9311
B( 24-C , 27-C ) :   1.0730 B( 27-C , 28-H ) :   0.9244 B( 27-C , 29-H ) :   0.9113
B( 27-C , 30-C ) :   1.0717 B( 30-C , 31-H ) :   0.9586 B( 30-C , 32-C ) :   1.0800
B( 32-C , 33-H ) :   0.9156 B( 32-C , 34-H ) :   0.9283 B( 32-C , 35-C ) :   1.0709
B( 35-C , 36-H ) :   0.9445 B( 35-C , 37-H ) :   0.9474 B( 35-C , 38-C ) :   1.1048
B( 38-C , 39-H ) :   0.9667 B( 38-C , 40-H ) :   0.9664 B( 38-C , 44-H ) :   0.9628
B( 41-C , 42-H ) :   1.1165

FINAL SINGLE POINT ENERGY      -739.695449550369

DIPOLE MOMENT
-------------
                                X             Y             Z
Electronic contribution:      4.21577     -11.00161      -0.14574
Nuclear contribution   :     -4.42748      11.00334       0.09892
                        -----------------------------------------
Total Dipole Moment    :     -0.21171       0.00173      -0.04683
                        -----------------------------------------
Magnitude (a.u.)       :      0.21684
Magnitude (Debye)      :      0.55116

Rotational constants in cm-1:     0.034344     0.002975     0.002760
Rotational constants in MHz :  1029.618259    89.197423    82.731260

CHEMICAL SHIELDING SUMMARY (ppm)  --  Orbital contribution
----------------------------------------------------------

  Nucleus  Element    Isotropic     Anisotropy
  -------  -------  ------------   ------------
      7       H           25.741         10.175
      8       H           74.213         33.878
     10       H           31.839         18.697
     11       H           34.349         19.195
     13       H           63.992         12.818
     14       H           64.843         12.018
     16       H            7.248         20.118
     17       H            5.998         20.186
     19       H           12.012         14.239
     20       H           10.556         14.723
     22       H           78.423         42.403
     23       H           74.803         40.696
     25       H           85.635         15.301
     26       H           89.463          6.982
     28       H           64.144         17.288
     29       H           59.232         11.463
     31       H           68.216          6.869
     33       H            5.435         23.642
     34       H           46.748          9.888
     36       H           24.575         13.159
     37       H           65.412          6.217
     39       H           -3.567         15.308
     40       H          -40.670         24.679
     42       H          -33.630         10.772
     43       H         -103.686          5.447
     44       H          -89.563         29.322
     45       H           28.699         10.798

                             ****ORCA TERMINATED NORMALLY****
TOTAL RUN TIME: 0 days 0 hours 54 minutes 6 seconds 867 msec
