                         Program Version 5.0.4 -  RELEASE  -
|  1> ! B3LYP EPR-II AUTOAUX
|  2> %pal nprocs 16 end
|  3> *XYZFile 0 2 opt.xyz
|  4> %EPRNMR
|  5>         GTENSOR   TRUE
|  6>         NUCLEI    = ALL H {SHIFT, AISO, ADIP, AORB}
|  7>         ORI       CenterOfElCharge
|  8> END
|  9>
| 10>                          ****END OF INPUT****

CARTESIAN COORDINATES (ANGSTROEM)
---------------------------------
  C      4.303993   -0.099044   -0.019986
  C      0.095379    0.041847   -0.250332
  C      0.727206   -1.205028   -0.115214
  C      2.122929   -1.212411   -0.043556
  C      2.874308   -0.020154   -0.101380
  C      2.228091    1.234157   -0.236580
  C      0.828539    1.228178   -0.309060
  H      2.668303   -2.150773    0.059972
  H      0.289670    2.170928   -0.414345
  C     -0.115666   -2.468406   -0.049589
  H     -0.784199   -2.484013   -0.930720
  H     -0.791676   -2.389160    0.822893
  C      0.636247   -3.799827    0.026362
  H      1.309912   -3.896981   -0.845049
  H      1.286422   -3.811728    0.920477
  C     -0.301843   -5.011708    0.074983
  H     -0.977280   -4.914794    0.945461
  H     -0.955453   -5.002515   -0.817199
  C      0.442407   -6.347212    0.151027
  H      1.079450   -6.399990    1.050835
  H      1.097598   -6.491215   -0.725436
  C      3.053158    2.505621   -0.293993
  H      3.669351    2.559915    0.622764
  H      3.788282    2.406081   -1.113865
  C      2.286495    3.819607   -0.461501
  H      1.683582    3.789097   -1.387366
  H      1.571864    3.952366    0.370090
  C      3.218416    5.039823   -0.514112
  H      3.844016    5.071239    0.400108
  H      3.946453    4.894522   -1.346232
  C      2.505214    6.343014   -0.678289
  H      1.561879    6.348293   -1.239679
  C      3.174852    7.653563   -0.417869
  H      3.874748    7.897348   -1.251684
  H      3.824892    7.567710    0.475950
  C      2.204128    8.830751   -0.238803
  H      1.570192    8.913846   -1.141092
  H      1.516816    8.605008    0.596374
  C      2.912091   10.163176    0.016523
  H      3.531850   10.118821    0.928896
  H      3.579244   10.430027   -0.821537
  C      5.515728   -0.175457    0.048577
  H      6.584104   -0.243307    0.110603
  H     -0.257066   -7.198161    0.187741
  H      2.190725   10.986727    0.143833
  H     -0.996407    0.085398   -0.311066

 Total Charge           Charge          ....    0
 Multiplicity           Mult            ....    2
 Number of Electrons    NEL             ....  141
 Basis Dimension        Dim             ....  512

ORBITAL ENERGIES
----------------
                 SPIN UP ORBITALS
  NO   OCC          E(Eh)            E(eV)
   0   1.0000     -10.215478      -277.9773
   1   1.0000     -10.205129      -277.6957
   2   1.0000     -10.201390      -277.5939
   3   1.0000     -10.200994      -277.5832
   4   1.0000     -10.193337      -277.3748
   5   1.0000     -10.192522      -277.3526
   6   1.0000     -10.192068      -277.3403
   7   1.0000     -10.191272      -277.3186
   8   1.0000     -10.188581      -277.2454
   9   1.0000     -10.185163      -277.1524
  10   1.0000     -10.184507      -277.1345
  11   1.0000     -10.183623      -277.1105
  12   1.0000     -10.182636      -277.0836
  13   1.0000     -10.181956      -277.0651
  14   1.0000     -10.181737      -277.0591
  15   1.0000     -10.181562      -277.0544
  16   1.0000     -10.179783      -277.0060
  17   1.0000     -10.173157      -276.8257
  18   1.0000     -10.171256      -276.7740
  19   1.0000      -0.862987       -23.4831
  20   1.0000      -0.811180       -22.0733
  21   1.0000      -0.801246       -21.8030
  22   1.0000      -0.782342       -21.2886
  23   1.0000      -0.776510       -21.1299
  24   1.0000      -0.757147       -20.6030
  25   1.0000      -0.729680       -19.8556
  26   1.0000      -0.722407       -19.6577
  27   1.0000      -0.703235       -19.1360
  28   1.0000      -0.670669       -18.2498
  29   1.0000      -0.637966       -17.3599
  30   1.0000      -0.617898       -16.8138
  31   1.0000      -0.608021       -16.5451
  32   1.0000      -0.583656       -15.8821
  33   1.0000      -0.576264       -15.6809
  34   1.0000      -0.560636       -15.2557
  35   1.0000      -0.559461       -15.2237
  36   1.0000      -0.526382       -14.3236
  37   1.0000      -0.493549       -13.4302
  38   1.0000      -0.469845       -12.7851
  39   1.0000      -0.469522       -12.7763
  40   1.0000      -0.466633       -12.6977
  41   1.0000      -0.459782       -12.5113
  42   1.0000      -0.453370       -12.3368
  43   1.0000      -0.429031       -11.6745
  44   1.0000      -0.425738       -11.5849
  45   1.0000      -0.421725       -11.4757
  46   1.0000      -0.418731       -11.3942
  47   1.0000      -0.412515       -11.2251
  48   1.0000      -0.405951       -11.0465
  49   1.0000      -0.403712       -10.9856
  50   1.0000      -0.382966       -10.4210
  51   1.0000      -0.378814       -10.3080
  52   1.0000      -0.373692       -10.1687
  53   1.0000      -0.363223        -9.8838
  54   1.0000      -0.360853        -9.8193
  55   1.0000      -0.352627        -9.5955
  56   1.0000      -0.348979        -9.4962
  57   1.0000      -0.346880        -9.4391
  58   1.0000      -0.332609        -9.0507
  59   1.0000      -0.330130        -8.9833
  60   1.0000      -0.327050        -8.8995
  61   1.0000      -0.325236        -8.8501
  62   1.0000      -0.322706        -8.7813
  63   1.0000      -0.321488        -8.7481
  64   1.0000      -0.320031        -8.7085
  65   1.0000      -0.311396        -8.4735
  66   1.0000      -0.299178        -8.1410
  67   1.0000      -0.272025        -7.4022
  68   1.0000      -0.240916        -6.5557
  69   1.0000      -0.223238        -6.0746
  70   1.0000      -0.179546        -4.8857
  71   0.0000      -0.032400        -0.8816
  72   0.0000       0.000671         0.0183
  73   0.0000       0.020866         0.5678
  74   0.0000       0.023666         0.6440
  75   0.0000       0.026138         0.7113

                 SPIN DOWN ORBITALS
  NO   OCC          E(Eh)            E(eV)
   0   1.0000     -10.215472      -277.9771
   1   1.0000     -10.205137      -277.6959
   2   1.0000     -10.201385      -277.5938
   3   1.0000     -10.200995      -277.5832
   4   1.0000     -10.193340      -277.3749
   5   1.0000     -10.192524      -277.3527
   6   1.0000     -10.192067      -277.3402
   7   1.0000     -10.191267      -277.3185
   8   1.0000     -10.188582      -277.2454
   9   1.0000     -10.184514      -277.1347
  10   1.0000     -10.184493      -277.1341
  11   1.0000     -10.182636      -277.0836
  12   1.0000     -10.182618      -277.0831
  13   1.0000     -10.181956      -277.0651
  14   1.0000     -10.181312      -277.0476
  15   1.0000     -10.179508      -276.9985
  16   1.0000     -10.173157      -276.8257
  17   1.0000     -10.171463      -276.7796
  18   1.0000     -10.171245      -276.7737
  19   1.0000      -0.862967       -23.4825
  20   1.0000      -0.809460       -22.0265
  21   1.0000      -0.795296       -21.6411
  22   1.0000      -0.781094       -21.2546
  23   1.0000      -0.776346       -21.1255
  24   1.0000      -0.755597       -20.5608
  25   1.0000      -0.725341       -19.7375
  26   1.0000      -0.722370       -19.6567
  27   1.0000      -0.699900       -19.0452
  28   1.0000      -0.669896       -18.2288
  29   1.0000      -0.636933       -17.3318
  30   1.0000      -0.617303       -16.7977
  31   1.0000      -0.605919       -16.4879
  32   1.0000      -0.582371       -15.8471
  33   1.0000      -0.575574       -15.6622
  34   1.0000      -0.559259       -15.2182
  35   1.0000      -0.545093       -14.8327
  36   1.0000      -0.526067       -14.3150
  37   1.0000      -0.493216       -13.4211
  38   1.0000      -0.469782       -12.7834
  39   1.0000      -0.467688       -12.7264
  40   1.0000      -0.463339       -12.6081
  41   1.0000      -0.459457       -12.5025
  42   1.0000      -0.451379       -12.2827
  43   1.0000      -0.426721       -11.6117
  44   1.0000      -0.424373       -11.5478
  45   1.0000      -0.420783       -11.4501
  46   1.0000      -0.418569       -11.3898
  47   1.0000      -0.412229       -11.2173
  48   1.0000      -0.401899       -10.9362
  49   1.0000      -0.398992       -10.8571
  50   1.0000      -0.380653       -10.3581
  51   1.0000      -0.375721       -10.2239
  52   1.0000      -0.372936       -10.1481
  53   1.0000      -0.362308        -9.8589
  54   1.0000      -0.359274        -9.7763
  55   1.0000      -0.351711        -9.5705
  56   1.0000      -0.347548        -9.4573
  57   1.0000      -0.345413        -9.3992
  58   1.0000      -0.331621        -9.0239
  59   1.0000      -0.328093        -8.9279
  60   1.0000      -0.325723        -8.8634
  61   1.0000      -0.324252        -8.8233
  62   1.0000      -0.322497        -8.7756
  63   1.0000      -0.320484        -8.7208
  64   1.0000      -0.318880        -8.6772
  65   1.0000      -0.308745        -8.4014
  66   1.0000      -0.299141        -8.1400
  67   1.0000      -0.272018        -7.4020
  68   1.0000      -0.240872        -6.5544
  69   1.0000      -0.223179        -6.0730
  70   0.0000      -0.037248        -1.0136
  71   0.0000      -0.032284        -0.8785
  72   0.0000       0.000773         0.0210
  73   0.0000       0.020940         0.5698
  74   0.0000       0.024013         0.6534

MULLIKEN ATOMIC CHARGES AND SPIN POPULATIONS
--------------------------------------------
   0 C :    0.001217   -0.000074
   1 C :   -0.330920   -0.000199
   2 C :    0.510175    0.000284
   3 C :   -0.443473   -0.000182
   4 C :    0.421356    0.000468
   5 C :    0.283705   -0.000938
   6 C :   -0.243830    0.000595
   7 H :    0.129303    0.000009
   8 H :    0.114668   -0.000023
   9 C :   -0.396288   -0.000018
  10 H :    0.144462    0.000014
  11 H :    0.148312    0.000015
  12 C :   -0.260935    0.000003
  13 H :    0.143008    0.000000
  14 H :    0.139527    0.000000
  15 C :   -0.256864   -0.000000
  16 H :    0.140496    0.000000
  17 H :    0.140746    0.000000
  18 C :   -0.508208    0.000000
  19 H :    0.158096    0.000000
  20 H :    0.158423    0.000000
  21 C :   -0.380889    0.000785
  22 H :    0.154930    0.000217
  23 H :    0.152283    0.000039
  24 C :   -0.294620    0.012128
  25 H :    0.144393   -0.000600
  26 H :    0.154008   -0.001176
  27 C :   -0.276859   -0.066177
  28 H :    0.145676    0.019265
  29 H :    0.145685    0.056367
  30 C :   -0.126149    1.006193
  31 H :    0.111151   -0.048910
  32 C :   -0.282394   -0.064540
  33 H :    0.145701    0.056907
  34 H :    0.142511    0.018320
  35 C :   -0.268207    0.012278
  36 H :    0.144721   -0.000674
  37 H :    0.155783   -0.000740
  38 C :   -0.507924    0.000125
  39 H :    0.158460    0.000185
  40 H :    0.156982    0.000171
  41 C :   -0.541247    0.000087
  42 H :    0.180194   -0.000004
  43 H :    0.143394   -0.000000
  44 H :    0.145965   -0.000205
  45 H :    0.103478    0.000006
Sum of atomic charges         :   -0.0000000

LOEWDIN ATOMIC CHARGES AND SPIN POPULATIONS
-------------------------------------------
   0 C :   -0.030291   -0.000005
   1 C :   -0.038079   -0.000107
   2 C :   -0.071764    0.000227
   3 C :   -0.011060   -0.000093
   4 C :   -0.076040    0.000263
   5 C :   -0.044445   -0.000168
   6 C :   -0.041420    0.000293
   7 H :    0.061212    0.000000
   8 H :    0.055015    0.000011
   9 C :   -0.061258    0.000002
  10 H :    0.056149    0.000011
  11 H :    0.056803    0.000011
  12 C :   -0.084648    0.000000
  13 H :    0.047944    0.000000
  14 H :    0.046885    0.000000
  15 C :   -0.096892    0.000000
  16 H :    0.043181    0.000000
  17 H :    0.043112    0.000000
  18 C :   -0.084734   -0.000000
  19 H :    0.036487    0.000000
  20 H :    0.036514    0.000000
  21 C :   -0.049008    0.001105
  22 H :    0.061704    0.000170
  23 H :    0.061393    0.000405
  24 C :   -0.079276    0.009149
  25 H :    0.046582   -0.000019
  26 H :    0.048351   -0.000057
  27 C :   -0.097010    0.008626
  28 H :    0.052099    0.017030
  29 H :    0.055951    0.045993
  30 C :   -0.068045    0.826489
  31 H :    0.043383    0.008060
  32 C :   -0.102460    0.008657
  33 H :    0.055208    0.046187
  34 H :    0.051036    0.015971
  35 C :   -0.094895    0.010299
  36 H :    0.042545   -0.000018
  37 H :    0.044706   -0.000010
  38 C :   -0.086467    0.000945
  39 H :    0.036081    0.000176
  40 H :    0.035851    0.000359
  41 C :   -0.069692    0.000077
  42 H :    0.047969    0.000000
  43 H :    0.033636    0.000000
  44 H :    0.033457   -0.000038
  45 H :    0.054229   -0.000001

  Mayer bond orders larger than 0.100000
B(  0-C ,  4-C ) :   0.9155 B(  0-C , 41-C ) :   2.6956 B(  1-C ,  2-C ) :   1.3701
B(  1-C ,  3-C ) :   0.1197 B(  1-C ,  5-C ) :   0.1061 B(  1-C ,  6-C ) :   1.4842
B(  1-C , 45-H ) :   0.9825 B(  2-C ,  3-C ) :   1.4465 B(  2-C ,  4-C ) :   0.1074
B(  2-C ,  9-C ) :   0.8971 B(  3-C ,  4-C ) :   1.4236 B(  3-C ,  7-H ) :   0.9820
B(  4-C ,  5-C ) :   1.3827 B(  4-C ,  6-C ) :   0.1112 B(  5-C ,  6-C ) :   1.4228
B(  5-C , 21-C ) :   0.9466 B(  6-C ,  8-H ) :   0.9790 B(  9-C , 10-H ) :   0.9697
B(  9-C , 11-H ) :   0.9673 B(  9-C , 12-C ) :   1.0201 B( 12-C , 13-H ) :   0.9639
B( 12-C , 14-H ) :   0.9604 B( 12-C , 15-C ) :   0.9842 B( 15-C , 16-H ) :   0.9725
B( 15-C , 17-H ) :   0.9719 B( 15-C , 18-C ) :   0.9560 B( 18-C , 19-H ) :   0.9720
B( 18-C , 20-H ) :   0.9717 B( 18-C , 43-H ) :   0.9685 B( 21-C , 22-H ) :   0.9566
B( 21-C , 23-H ) :   0.9585 B( 21-C , 24-C ) :   1.0073 B( 24-C , 25-H ) :   0.9657
B( 24-C , 26-H ) :   0.9574 B( 24-C , 27-C ) :   0.9773 B( 27-C , 28-H ) :   0.9694
B( 27-C , 29-H ) :   0.9557 B( 27-C , 30-C ) :   0.9759 B( 30-C , 31-H ) :   1.0067
B( 30-C , 32-C ) :   0.9795 B( 32-C , 33-H ) :   0.9559 B( 32-C , 34-H ) :   0.9744
B( 32-C , 35-C ) :   0.9817 B( 35-C , 36-H ) :   0.9766 B( 35-C , 37-H ) :   0.9721
B( 35-C , 38-C ) :   0.9570 B( 38-C , 39-H ) :   0.9710 B( 38-C , 40-H ) :   0.9732
B( 38-C , 44-H ) :   0.9688 B( 41-C , 42-H ) :   0.9842

FINAL SINGLE POINT ENERGY      -739.774619263889

DIPOLE MOMENT
-------------
                                X             Y             Z
Electronic contribution:      4.20367     -10.98408      -0.17740
Nuclear contribution   :     -4.44592      11.00378       0.11775
                        -----------------------------------------
Total Dipole Moment    :     -0.24225       0.01969      -0.05965
                        -----------------------------------------
Magnitude (a.u.)       :      0.25026
Magnitude (Debye)      :      0.63611

Rotational constants in cm-1:     0.034304     0.002976     0.002760
Rotational constants in MHz :  1028.401036    89.219646    82.746430

CHEMICAL SHIELDING SUMMARY (ppm)  --  Orbital contribution
----------------------------------------------------------

  Nucleus  Element    Isotropic     Anisotropy
  -------  -------  ------------   ------------
      7       H           23.437          7.508
      8       H           71.046         30.632
     10       H           30.614         17.997
     11       H           33.214         18.311
     13       H           62.187         11.807
     14       H           63.177         10.978
     16       H            6.608         19.946
     17       H            5.266         20.078
     19       H           13.646         13.038
     20       H           12.126         13.533
     22       H           75.587         40.339
     23       H           71.957         38.484
     25       H           82.514         14.323
     26       H           86.387          5.958
     28       H           61.680         16.663
     29       H           56.671         10.834
     31       H           65.612          6.302
     33       H            4.088         23.737
     34       H           45.850          8.915
     36       H           22.608         13.293
     37       H           64.204          5.019
     39       H           -0.630         13.143
     40       H          -37.768         23.427
     42       H          -36.879          9.882
     43       H          -98.943          8.807
     44       H          -84.847         29.507
     45       H           26.708          8.482

                             ****ORCA TERMINATED NORMALLY****
TOTAL RUN TIME: 0 days 1 hours 1 minutes 46 seconds 131 msec
