                         Program Version 5.0.4 -  RELEASE  -
|  1> ! B3LYP EPR-II AUTOAUX
|  2> %pal nprocs 16 end
|  3> *XYZFile 0 2 opt_EPRII.xyz
|  4> %EPRNMR
|  5>         GTENSOR   TRUE
|  6>         NUCLEI    = ALL H {SHIFT, AISO, ADIP, AORB}
|  7>         ORI       GIAO
|  8> END
|  9>
| 10>                          ****END OF INPUT****

CARTESIAN COORDINATES (ANGSTROEM)
---------------------------------
  C      4.305985   -0.105874   -0.029654
  C      0.090699    0.037263   -0.298425
  C      0.722838   -1.212509   -0.143433
  C      2.121823   -1.222354   -0.060561
  C      2.873890   -0.026683   -0.124256
  C      2.231004    1.230473   -0.275467
  C      0.827866    1.227034   -0.362237
  H      2.660870   -2.156090    0.056151
  H      0.295462    2.165179   -0.480162
  C     -0.126129   -2.476691   -0.063131
  H     -0.787453   -2.504634   -0.940125
  H     -0.791368   -2.388970    0.807486
  C      0.633682   -3.809664    0.028958
  H      1.294140   -3.920459   -0.841431
  H      1.281606   -3.807374    0.915508
  C     -0.308038   -5.024871    0.104541
  H     -0.970725   -4.915341    0.973473
  H     -0.958337   -5.035405   -0.780405
  C      0.445654   -6.362799    0.202588
  H      1.082505   -6.390812    1.093931
  H      1.090104   -6.516616   -0.670270
  C      3.060857    2.504573   -0.332047
  H      3.671819    2.556614    0.579280
  H      3.782777    2.411541   -1.154603
  C      2.284067    3.820431   -0.489594
  H      1.692076    3.798850   -1.413924
  H      1.574297    3.941467    0.338107
  C      3.219136    5.045825   -0.524035
  H      3.826920    5.070206    0.392951
  H      3.946282    4.910856   -1.347478
  C      2.500375    6.354924   -0.683024
  H      1.565155    6.366079   -1.244010
  C      3.176931    7.666666   -0.404514
  H      3.870991    7.917443   -1.229533
  H      3.813574    7.570442    0.487854
  C      2.203061    8.847819   -0.214383
  H      1.578354    8.943933   -1.112063
  H      1.522732    8.618580    0.615038
  C      2.922169   10.180213    0.057375
  H      3.537268   10.117479    0.962211
  H      3.583605   10.447823   -0.774612
  C      5.521961   -0.174530    0.049890
  H      6.583672   -0.236015    0.120931
  H     -0.248062   -7.208013    0.259966
  H      2.207736   10.998600    0.194366
  H     -0.994890    0.080569   -0.369294

 Total Charge           Charge          ....    0
 Multiplicity           Mult            ....    2
 Number of Electrons    NEL             ....  141
 Basis Dimension        Dim             ....  512

ORBITAL ENERGIES
----------------
                 SPIN UP ORBITALS
  NO   OCC          E(Eh)            E(eV)
   0   1.0000     -10.216459      -278.0040
   1   1.0000     -10.205981      -277.7189
   2   1.0000     -10.202420      -277.6220
   3   1.0000     -10.201946      -277.6091
   4   1.0000     -10.193820      -277.3879
   5   1.0000     -10.192943      -277.3641
   6   1.0000     -10.192257      -277.3454
   7   1.0000     -10.191737      -277.3313
   8   1.0000     -10.187652      -277.2201
   9   1.0000     -10.184976      -277.1473
  10   1.0000     -10.183607      -277.1100
  11   1.0000     -10.182344      -277.0757
  12   1.0000     -10.181299      -277.0472
  13   1.0000     -10.180769      -277.0328
  14   1.0000     -10.180395      -277.0226
  15   1.0000     -10.180341      -277.0212
  16   1.0000     -10.178358      -276.9672
  17   1.0000     -10.170936      -276.7652
  18   1.0000     -10.169009      -276.7128
  19   1.0000      -0.861028       -23.4298
  20   1.0000      -0.809846       -22.0370
  21   1.0000      -0.799784       -21.7632
  22   1.0000      -0.781192       -21.2573
  23   1.0000      -0.775329       -21.0978
  24   1.0000      -0.756139       -20.5756
  25   1.0000      -0.729008       -19.8373
  26   1.0000      -0.721637       -19.6368
  27   1.0000      -0.702845       -19.1254
  28   1.0000      -0.670716       -18.2511
  29   1.0000      -0.638489       -17.3742
  30   1.0000      -0.617772       -16.8104
  31   1.0000      -0.609115       -16.5748
  32   1.0000      -0.584823       -15.9138
  33   1.0000      -0.578035       -15.7291
  34   1.0000      -0.562029       -15.2936
  35   1.0000      -0.560707       -15.2576
  36   1.0000      -0.527345       -14.3498
  37   1.0000      -0.493362       -13.4251
  38   1.0000      -0.470726       -12.8091
  39   1.0000      -0.469975       -12.7887
  40   1.0000      -0.466417       -12.6918
  41   1.0000      -0.459679       -12.5085
  42   1.0000      -0.454446       -12.3661
  43   1.0000      -0.428590       -11.6625
  44   1.0000      -0.424977       -11.5642
  45   1.0000      -0.420810       -11.4508
  46   1.0000      -0.419952       -11.4275
  47   1.0000      -0.412828       -11.2336
  48   1.0000      -0.406911       -11.0726
  49   1.0000      -0.402860       -10.9624
  50   1.0000      -0.383592       -10.4381
  51   1.0000      -0.378857       -10.3092
  52   1.0000      -0.373343       -10.1592
  53   1.0000      -0.364460        -9.9175
  54   1.0000      -0.361234        -9.8297
  55   1.0000      -0.351623        -9.5681
  56   1.0000      -0.350055        -9.5255
  57   1.0000      -0.347435        -9.4542
  58   1.0000      -0.332351        -9.0437
  59   1.0000      -0.331634        -9.0242
  60   1.0000      -0.327464        -8.9108
  61   1.0000      -0.325286        -8.8515
  62   1.0000      -0.324914        -8.8414
  63   1.0000      -0.323537        -8.8039
  64   1.0000      -0.319149        -8.6845
  65   1.0000      -0.309879        -8.4322
  66   1.0000      -0.298412        -8.1202
  67   1.0000      -0.271317        -7.3829
  68   1.0000      -0.240661        -6.5487
  69   1.0000      -0.223012        -6.0685
  70   1.0000      -0.179981        -4.8975
  71   0.0000      -0.032947        -0.8965
  72   0.0000      -0.000211        -0.0057
  73   0.0000       0.020978         0.5708
  74   0.0000       0.024164         0.6575
  75   0.0000       0.026375         0.7177

                 SPIN DOWN ORBITALS
  NO   OCC          E(Eh)            E(eV)
   0   1.0000     -10.216453      -278.0038
   1   1.0000     -10.205989      -277.7191
   2   1.0000     -10.202416      -277.6218
   3   1.0000     -10.201947      -277.6091
   4   1.0000     -10.193822      -277.3880
   5   1.0000     -10.192945      -277.3641
   6   1.0000     -10.192256      -277.3454
   7   1.0000     -10.191731      -277.3311
   8   1.0000     -10.187652      -277.2201
   9   1.0000     -10.183595      -277.1097
  10   1.0000     -10.183211      -277.0993
  11   1.0000     -10.181299      -277.0472
  12   1.0000     -10.181257      -277.0461
  13   1.0000     -10.180769      -277.0328
  14   1.0000     -10.180098      -277.0146
  15   1.0000     -10.178084      -276.9597
  16   1.0000     -10.171231      -276.7733
  17   1.0000     -10.170936      -276.7652
  18   1.0000     -10.168999      -276.7125
  19   1.0000      -0.861008       -23.4292
  20   1.0000      -0.808207       -21.9924
  21   1.0000      -0.793947       -21.6044
  22   1.0000      -0.779887       -21.2218
  23   1.0000      -0.775180       -21.0937
  24   1.0000      -0.754597       -20.5336
  25   1.0000      -0.724660       -19.7190
  26   1.0000      -0.721617       -19.6362
  27   1.0000      -0.699507       -19.0346
  28   1.0000      -0.669956       -18.2304
  29   1.0000      -0.637450       -17.3459
  30   1.0000      -0.617229       -16.7957
  31   1.0000      -0.606897       -16.5145
  32   1.0000      -0.583585       -15.8802
  33   1.0000      -0.577373       -15.7111
  34   1.0000      -0.560479       -15.2514
  35   1.0000      -0.546166       -14.8619
  36   1.0000      -0.527066       -14.3422
  37   1.0000      -0.493049       -13.4166
  38   1.0000      -0.470676       -12.8077
  39   1.0000      -0.467308       -12.7161
  40   1.0000      -0.464139       -12.6299
  41   1.0000      -0.459391       -12.5007
  42   1.0000      -0.452426       -12.3111
  43   1.0000      -0.426446       -11.6042
  44   1.0000      -0.423994       -11.5375
  45   1.0000      -0.419826       -11.4240
  46   1.0000      -0.419398       -11.4124
  47   1.0000      -0.412559       -11.2263
  48   1.0000      -0.401250       -10.9186
  49   1.0000      -0.399784       -10.8787
  50   1.0000      -0.380935       -10.3658
  51   1.0000      -0.376170       -10.2361
  52   1.0000      -0.372495       -10.1361
  53   1.0000      -0.363704        -9.8969
  54   1.0000      -0.359699        -9.7879
  55   1.0000      -0.350695        -9.5429
  56   1.0000      -0.348669        -9.4878
  57   1.0000      -0.345919        -9.4129
  58   1.0000      -0.331300        -9.0151
  59   1.0000      -0.330016        -8.9802
  60   1.0000      -0.325965        -8.8699
  61   1.0000      -0.324795        -8.8381
  62   1.0000      -0.324219        -8.8224
  63   1.0000      -0.321740        -8.7550
  64   1.0000      -0.318833        -8.6759
  65   1.0000      -0.307144        -8.3578
  66   1.0000      -0.298382        -8.1194
  67   1.0000      -0.271311        -7.3827
  68   1.0000      -0.240617        -6.5475
  69   1.0000      -0.222956        -6.0670
  70   0.0000      -0.036818        -1.0019
  71   0.0000      -0.032802        -0.8926
  72   0.0000      -0.000106        -0.0029
  73   0.0000       0.021056         0.5730
  74   0.0000       0.024507         0.6669

MULLIKEN ATOMIC CHARGES AND SPIN POPULATIONS
--------------------------------------------
   0 C :   -0.004563   -0.000077
   1 C :   -0.329139   -0.000207
   2 C :    0.498502    0.000286
   3 C :   -0.437447   -0.000188
   4 C :    0.418847    0.000458
   5 C :    0.275592   -0.000961
   6 C :   -0.241806    0.000606
   7 H :    0.130979    0.000009
   8 H :    0.116596   -0.000023
   9 C :   -0.398434   -0.000017
  10 H :    0.146896    0.000013
  11 H :    0.151206    0.000014
  12 C :   -0.266727    0.000002
  13 H :    0.146571    0.000000
  14 H :    0.141816    0.000000
  15 C :   -0.265571   -0.000000
  16 H :    0.143438    0.000000
  17 H :    0.143806    0.000000
  18 C :   -0.511042    0.000000
  19 H :    0.160233    0.000000
  20 H :    0.160612    0.000000
  21 C :   -0.382887    0.000739
  22 H :    0.157012    0.000195
  23 H :    0.155276    0.000043
  24 C :   -0.301223    0.011886
  25 H :    0.146685   -0.000557
  26 H :    0.157307   -0.001136
  27 C :   -0.279308   -0.065370
  28 H :    0.148691    0.018516
  29 H :    0.148468    0.053525
  30 C :   -0.134206    1.012354
  31 H :    0.113886   -0.048812
  32 C :   -0.285071   -0.063913
  33 H :    0.148866    0.053925
  34 H :    0.145344    0.017372
  35 C :   -0.276943    0.012324
  36 H :    0.147590   -0.000639
  37 H :    0.158581   -0.000708
  38 C :   -0.510972    0.000114
  39 H :    0.160616    0.000169
  40 H :    0.159164    0.000162
  41 C :   -0.536561    0.000096
  42 H :    0.181525   -0.000004
  43 H :    0.145078   -0.000000
  44 H :    0.147654   -0.000202
  45 H :    0.105066    0.000007
Sum of atomic charges         :   -0.0000000

LOEWDIN ATOMIC CHARGES AND SPIN POPULATIONS
-------------------------------------------
   0 C :   -0.029057   -0.000011
   1 C :   -0.036426   -0.000114
   2 C :   -0.069336    0.000228
   3 C :   -0.010099   -0.000101
   4 C :   -0.075308    0.000260
   5 C :   -0.042927   -0.000191
   6 C :   -0.039337    0.000296
   7 H :    0.058862   -0.000000
   8 H :    0.052590    0.000012
   9 C :   -0.057114    0.000002
  10 H :    0.053653    0.000010
  11 H :    0.054524    0.000010
  12 C :   -0.079686    0.000000
  13 H :    0.045541    0.000000
  14 H :    0.044347    0.000000
  15 C :   -0.091015    0.000000
  16 H :    0.040600    0.000000
  17 H :    0.040517    0.000000
  18 C :   -0.078543   -0.000000
  19 H :    0.034126    0.000000
  20 H :    0.034152    0.000000
  21 C :   -0.044820    0.001014
  22 H :    0.059255    0.000153
  23 H :    0.058822    0.000391
  24 C :   -0.074515    0.008933
  25 H :    0.043965    0.000008
  26 H :    0.046078   -0.000027
  27 C :   -0.092078    0.008322
  28 H :    0.049624    0.016487
  29 H :    0.053320    0.043863
  30 C :   -0.064136    0.832270
  31 H :    0.040158    0.008899
  32 C :   -0.097256    0.008307
  33 H :    0.052489    0.043982
  34 H :    0.048439    0.015225
  35 C :   -0.088864    0.010301
  36 H :    0.039842    0.000008
  37 H :    0.041939    0.000021
  38 C :   -0.080314    0.000897
  39 H :    0.033728    0.000161
  40 H :    0.033496    0.000338
  41 C :   -0.068185    0.000084
  42 H :    0.044431    0.000000
  43 H :    0.031389    0.000000
  44 H :    0.031203   -0.000038
  45 H :    0.051929   -0.000001

  Mayer bond orders larger than 0.100000
B(  0-C ,  4-C ) :   0.9113 B(  0-C , 41-C ) :   2.7019 B(  1-C ,  2-C ) :   1.3723
B(  1-C ,  3-C ) :   0.1178 B(  1-C ,  5-C ) :   0.1022 B(  1-C ,  6-C ) :   1.4830
B(  1-C , 45-H ) :   0.9819 B(  2-C ,  3-C ) :   1.4464 B(  2-C ,  4-C ) :   0.1032
B(  2-C ,  9-C ) :   0.8987 B(  3-C ,  4-C ) :   1.4217 B(  3-C ,  7-H ) :   0.9808
B(  4-C ,  5-C ) :   1.3805 B(  4-C ,  6-C ) :   0.1078 B(  5-C ,  6-C ) :   1.4230
B(  5-C , 21-C ) :   0.9466 B(  6-C ,  8-H ) :   0.9778 B(  9-C , 10-H ) :   0.9700
B(  9-C , 11-H ) :   0.9670 B(  9-C , 12-C ) :   1.0187 B( 12-C , 13-H ) :   0.9652
B( 12-C , 14-H ) :   0.9607 B( 12-C , 15-C ) :   0.9825 B( 15-C , 16-H ) :   0.9732
B( 15-C , 17-H ) :   0.9724 B( 15-C , 18-C ) :   0.9562 B( 18-C , 19-H ) :   0.9720
B( 18-C , 20-H ) :   0.9718 B( 18-C , 43-H ) :   0.9686 B( 21-C , 22-H ) :   0.9564
B( 21-C , 23-H ) :   0.9588 B( 21-C , 24-C ) :   1.0064 B( 24-C , 25-H ) :   0.9662
B( 24-C , 26-H ) :   0.9583 B( 24-C , 27-C ) :   0.9763 B( 27-C , 28-H ) :   0.9701
B( 27-C , 29-H ) :   0.9570 B( 27-C , 30-C ) :   0.9725 B( 30-C , 31-H ) :   1.0064
B( 30-C , 32-C ) :   0.9768 B( 32-C , 33-H ) :   0.9573 B( 32-C , 34-H ) :   0.9751
B( 32-C , 35-C ) :   0.9804 B( 35-C , 36-H ) :   0.9769 B( 35-C , 37-H ) :   0.9724
B( 35-C , 38-C ) :   0.9572 B( 38-C , 39-H ) :   0.9711 B( 38-C , 40-H ) :   0.9732
B( 38-C , 44-H ) :   0.9689 B( 41-C , 42-H ) :   0.9833

FINAL SINGLE POINT ENERGY      -739.775809127295

DIPOLE MOMENT
-------------
                                X             Y             Z
Electronic contribution:      4.18549     -11.02301      -0.47600
Nuclear contribution   :     -4.43813      11.04689       0.41935
                        -----------------------------------------
Total Dipole Moment    :     -0.25264       0.02388      -0.05665
                        -----------------------------------------
Magnitude (a.u.)       :      0.26001
Magnitude (Debye)      :      0.66090

Rotational constants in cm-1:     0.034096     0.002963     0.002749
Rotational constants in MHz :  1022.175865    88.833612    82.419374

CHEMICAL SHIELDING SUMMARY (ppm)  --  Orbital contribution
----------------------------------------------------------

  Nucleus  Element    Isotropic     Anisotropy
  -------  -------  ------------   ------------
      7       H           24.245         12.841
      8       H           24.536         10.853
     10       H           29.119          5.660
     11       H           29.089          5.322
     13       H           30.208          4.467
     14       H           30.126          4.918
     16       H           30.407          6.661
     17       H           30.393          6.744
     19       H           30.970          8.007
     20       H           30.965          8.000
     22       H           28.944          5.966
     23       H           28.894          6.000
     25       H           30.016          5.332
     26       H           29.978          4.957
     28       H           29.573          4.561
     29       H           29.263          5.159
     31       H           27.352          8.561
     33       H           29.383          5.345
     34       H           29.706          3.842
     36       H           30.288          6.588
     37       H           30.243          6.218
     39       H           31.085          8.032
     40       H           31.034          8.149
     42       H           28.639         10.811
     43       H           30.758         10.364
     44       H           30.801         10.010
     45       H           24.505          8.839

                             ****ORCA TERMINATED NORMALLY****
TOTAL RUN TIME: 0 days 1 hours 3 minutes 40 seconds 356 msec
