                         Program Version 5.0.4 -  RELEASE  -
|  1> ! B3LYP EPR-II AUTOAUX
|  2> %pal nprocs 16 end
|  3> *XYZFile 0 2 opt.xyz
|  4> %EPRNMR
|  5>         GTENSOR   TRUE
|  6>         NUCLEI    = ALL H {SHIFT, AISO, ADIP, AORB}
|  7>         ORI       GIAO
|  8> END
|  9>
| 10>                          ****END OF INPUT****

CARTESIAN COORDINATES (ANGSTROEM)
---------------------------------
  C      4.303993   -0.099044   -0.019986
  C      0.095379    0.041847   -0.250332
  C      0.727206   -1.205028   -0.115214
  C      2.122929   -1.212411   -0.043556
  C      2.874308   -0.020154   -0.101380
  C      2.228091    1.234157   -0.236580
  C      0.828539    1.228178   -0.309060
  H      2.668303   -2.150773    0.059972
  H      0.289670    2.170928   -0.414345
  C     -0.115666   -2.468406   -0.049589
  H     -0.784199   -2.484013   -0.930720
  H     -0.791676   -2.389160    0.822893
  C      0.636247   -3.799827    0.026362
  H      1.309912   -3.896981   -0.845049
  H      1.286422   -3.811728    0.920477
  C     -0.301843   -5.011708    0.074983
  H     -0.977280   -4.914794    0.945461
  H     -0.955453   -5.002515   -0.817199
  C      0.442407   -6.347212    0.151027
  H      1.079450   -6.399990    1.050835
  H      1.097598   -6.491215   -0.725436
  C      3.053158    2.505621   -0.293993
  H      3.669351    2.559915    0.622764
  H      3.788282    2.406081   -1.113865
  C      2.286495    3.819607   -0.461501
  H      1.683582    3.789097   -1.387366
  H      1.571864    3.952366    0.370090
  C      3.218416    5.039823   -0.514112
  H      3.844016    5.071239    0.400108
  H      3.946453    4.894522   -1.346232
  C      2.505214    6.343014   -0.678289
  H      1.561879    6.348293   -1.239679
  C      3.174852    7.653563   -0.417869
  H      3.874748    7.897348   -1.251684
  H      3.824892    7.567710    0.475950
  C      2.204128    8.830751   -0.238803
  H      1.570192    8.913846   -1.141092
  H      1.516816    8.605008    0.596374
  C      2.912091   10.163176    0.016523
  H      3.531850   10.118821    0.928896
  H      3.579244   10.430027   -0.821537
  C      5.515728   -0.175457    0.048577
  H      6.584104   -0.243307    0.110603
  H     -0.257066   -7.198161    0.187741
  H      2.190725   10.986727    0.143833
  H     -0.996407    0.085398   -0.311066

 Total Charge           Charge          ....    0
 Multiplicity           Mult            ....    2
 Number of Electrons    NEL             ....  141
 Basis Dimension        Dim             ....  512

ORBITAL ENERGIES
----------------
                 SPIN UP ORBITALS
  NO   OCC          E(Eh)            E(eV)
   0   1.0000     -10.215433      -277.9761
   1   1.0000     -10.205082      -277.6944
   2   1.0000     -10.201541      -277.5980
   3   1.0000     -10.200956      -277.5821
   4   1.0000     -10.193535      -277.3802
   5   1.0000     -10.192547      -277.3533
   6   1.0000     -10.192068      -277.3403
   7   1.0000     -10.191286      -277.3190
   8   1.0000     -10.188644      -277.2471
   9   1.0000     -10.185117      -277.1511
  10   1.0000     -10.184489      -277.1340
  11   1.0000     -10.183600      -277.1098
  12   1.0000     -10.182614      -277.0830
  13   1.0000     -10.181959      -277.0652
  14   1.0000     -10.181698      -277.0581
  15   1.0000     -10.181583      -277.0550
  16   1.0000     -10.179764      -277.0055
  17   1.0000     -10.173139      -276.8252
  18   1.0000     -10.171254      -276.7739
  19   1.0000      -0.863018       -23.4839
  20   1.0000      -0.811190       -22.0736
  21   1.0000      -0.801243       -21.8029
  22   1.0000      -0.782342       -21.2886
  23   1.0000      -0.776510       -21.1299
  24   1.0000      -0.757155       -20.6032
  25   1.0000      -0.729680       -19.8556
  26   1.0000      -0.722420       -19.6581
  27   1.0000      -0.703242       -19.1362
  28   1.0000      -0.670669       -18.2498
  29   1.0000      -0.637982       -17.3604
  30   1.0000      -0.617911       -16.8142
  31   1.0000      -0.608023       -16.5451
  32   1.0000      -0.583655       -15.8821
  33   1.0000      -0.576264       -15.6809
  34   1.0000      -0.560623       -15.2553
  35   1.0000      -0.559471       -15.2240
  36   1.0000      -0.526390       -14.3238
  37   1.0000      -0.493560       -13.4305
  38   1.0000      -0.469855       -12.7854
  39   1.0000      -0.469523       -12.7764
  40   1.0000      -0.466650       -12.6982
  41   1.0000      -0.459794       -12.5116
  42   1.0000      -0.453361       -12.3366
  43   1.0000      -0.429027       -11.6744
  44   1.0000      -0.425747       -11.5852
  45   1.0000      -0.421734       -11.4760
  46   1.0000      -0.418747       -11.3947
  47   1.0000      -0.412531       -11.2255
  48   1.0000      -0.405945       -11.0463
  49   1.0000      -0.403712       -10.9856
  50   1.0000      -0.382962       -10.4209
  51   1.0000      -0.378810       -10.3079
  52   1.0000      -0.373703       -10.1690
  53   1.0000      -0.363236        -9.8842
  54   1.0000      -0.360858        -9.8195
  55   1.0000      -0.352633        -9.5956
  56   1.0000      -0.348988        -9.4964
  57   1.0000      -0.346886        -9.4392
  58   1.0000      -0.332604        -9.0506
  59   1.0000      -0.330127        -8.9832
  60   1.0000      -0.327044        -8.8993
  61   1.0000      -0.325246        -8.8504
  62   1.0000      -0.322709        -8.7813
  63   1.0000      -0.321488        -8.7481
  64   1.0000      -0.320041        -8.7088
  65   1.0000      -0.311388        -8.4733
  66   1.0000      -0.299180        -8.1411
  67   1.0000      -0.272017        -7.4020
  68   1.0000      -0.240962        -6.5569
  69   1.0000      -0.223246        -6.0748
  70   1.0000      -0.179520        -4.8850
  71   0.0000      -0.032413        -0.8820
  72   0.0000       0.000635         0.0173
  73   0.0000       0.020859         0.5676
  74   0.0000       0.023670         0.6441
  75   0.0000       0.026137         0.7112

                 SPIN DOWN ORBITALS
  NO   OCC          E(Eh)            E(eV)
   0   1.0000     -10.215427      -277.9759
   1   1.0000     -10.205090      -277.6946
   2   1.0000     -10.201536      -277.5979
   3   1.0000     -10.200957      -277.5821
   4   1.0000     -10.193537      -277.3802
   5   1.0000     -10.192549      -277.3534
   6   1.0000     -10.192067      -277.3402
   7   1.0000     -10.191281      -277.3188
   8   1.0000     -10.188644      -277.2471
   9   1.0000     -10.184488      -277.1340
  10   1.0000     -10.184474      -277.1336
  11   1.0000     -10.182614      -277.0830
  12   1.0000     -10.182575      -277.0820
  13   1.0000     -10.181959      -277.0652
  14   1.0000     -10.181334      -277.0482
  15   1.0000     -10.179490      -276.9980
  16   1.0000     -10.173139      -276.8252
  17   1.0000     -10.171423      -276.7785
  18   1.0000     -10.171243      -276.7736
  19   1.0000      -0.862998       -23.4834
  20   1.0000      -0.809478       -22.0270
  21   1.0000      -0.795289       -21.6409
  22   1.0000      -0.781092       -21.2546
  23   1.0000      -0.776346       -21.1254
  24   1.0000      -0.755607       -20.5611
  25   1.0000      -0.725341       -19.7375
  26   1.0000      -0.722385       -19.6571
  27   1.0000      -0.699903       -19.0453
  28   1.0000      -0.669894       -18.2287
  29   1.0000      -0.636950       -17.3323
  30   1.0000      -0.617315       -16.7980
  31   1.0000      -0.605922       -16.4880
  32   1.0000      -0.582370       -15.8471
  33   1.0000      -0.575573       -15.6621
  34   1.0000      -0.559271       -15.2185
  35   1.0000      -0.545079       -14.8324
  36   1.0000      -0.526074       -14.3152
  37   1.0000      -0.493227       -13.4214
  38   1.0000      -0.469795       -12.7838
  39   1.0000      -0.467708       -12.7270
  40   1.0000      -0.463334       -12.6080
  41   1.0000      -0.459469       -12.5028
  42   1.0000      -0.451370       -12.2824
  43   1.0000      -0.426723       -11.6117
  44   1.0000      -0.424380       -11.5480
  45   1.0000      -0.420791       -11.4503
  46   1.0000      -0.418586       -11.3903
  47   1.0000      -0.412245       -11.2178
  48   1.0000      -0.401900       -10.9363
  49   1.0000      -0.398981       -10.8568
  50   1.0000      -0.380650       -10.3580
  51   1.0000      -0.375717       -10.2238
  52   1.0000      -0.372947       -10.1484
  53   1.0000      -0.362320        -9.8592
  54   1.0000      -0.359282        -9.7766
  55   1.0000      -0.351716        -9.5707
  56   1.0000      -0.347554        -9.4574
  57   1.0000      -0.345417        -9.3993
  58   1.0000      -0.331617        -9.0237
  59   1.0000      -0.328090        -8.9278
  60   1.0000      -0.325728        -8.8635
  61   1.0000      -0.324247        -8.8232
  62   1.0000      -0.322501        -8.7757
  63   1.0000      -0.320495        -8.7211
  64   1.0000      -0.318879        -8.6771
  65   1.0000      -0.308734        -8.4011
  66   1.0000      -0.299143        -8.1401
  67   1.0000      -0.272010        -7.4018
  68   1.0000      -0.240917        -6.5557
  69   1.0000      -0.223187        -6.0732
  70   0.0000      -0.037233        -1.0132
  71   0.0000      -0.032296        -0.8788
  72   0.0000       0.000737         0.0201
  73   0.0000       0.020932         0.5696
  74   0.0000       0.024018         0.6536

MULLIKEN ATOMIC CHARGES AND SPIN POPULATIONS
--------------------------------------------
   0 C :    0.001259   -0.000071
   1 C :   -0.330885   -0.000197
   2 C :    0.510021    0.000283
   3 C :   -0.443679   -0.000180
   4 C :    0.421495    0.000466
   5 C :    0.283778   -0.000936
   6 C :   -0.243833    0.000593
   7 H :    0.129347    0.000008
   8 H :    0.114677   -0.000023
   9 C :   -0.396309   -0.000017
  10 H :    0.144484    0.000014
  11 H :    0.148334    0.000015
  12 C :   -0.260926    0.000002
  13 H :    0.143004    0.000000
  14 H :    0.139523    0.000000
  15 C :   -0.256833   -0.000000
  16 H :    0.140491    0.000000
  17 H :    0.140741    0.000000
  18 C :   -0.508192    0.000000
  19 H :    0.158089    0.000000
  20 H :    0.158416    0.000000
  21 C :   -0.380867    0.000787
  22 H :    0.154929    0.000217
  23 H :    0.152282    0.000038
  24 C :   -0.294663    0.012113
  25 H :    0.144398   -0.000597
  26 H :    0.154015   -0.001173
  27 C :   -0.276840   -0.066134
  28 H :    0.145671    0.019254
  29 H :    0.145679    0.056359
  30 C :   -0.126130    1.006131
  31 H :    0.111141   -0.048882
  32 C :   -0.282365   -0.064496
  33 H :    0.145689    0.056899
  34 H :    0.142501    0.018309
  35 C :   -0.268199    0.012261
  36 H :    0.144716   -0.000672
  37 H :    0.155779   -0.000737
  38 C :   -0.507929    0.000129
  39 H :    0.158459    0.000184
  40 H :    0.156980    0.000170
  41 C :   -0.541293    0.000085
  42 H :    0.180196   -0.000004
  43 H :    0.143392   -0.000000
  44 H :    0.145964   -0.000205
  45 H :    0.103496    0.000006
Sum of atomic charges         :    0.0000000

LOEWDIN ATOMIC CHARGES AND SPIN POPULATIONS
-------------------------------------------
   0 C :   -0.030248   -0.000004
   1 C :   -0.038061   -0.000105
   2 C :   -0.071874    0.000226
   3 C :   -0.011222   -0.000092
   4 C :   -0.075957    0.000262
   5 C :   -0.044375   -0.000166
   6 C :   -0.041410    0.000292
   7 H :    0.061229    0.000000
   8 H :    0.055021    0.000011
   9 C :   -0.061273    0.000002
  10 H :    0.056161    0.000011
  11 H :    0.056815    0.000011
  12 C :   -0.084636    0.000000
  13 H :    0.047941    0.000000
  14 H :    0.046882    0.000000
  15 C :   -0.096870    0.000000
  16 H :    0.043180    0.000000
  17 H :    0.043111    0.000000
  18 C :   -0.084725   -0.000000
  19 H :    0.036484    0.000000
  20 H :    0.036511    0.000000
  21 C :   -0.048999    0.001107
  22 H :    0.061706    0.000169
  23 H :    0.061395    0.000405
  24 C :   -0.079304    0.009141
  25 H :    0.046584   -0.000018
  26 H :    0.048354   -0.000056
  27 C :   -0.097001    0.008649
  28 H :    0.052097    0.017025
  29 H :    0.055948    0.045990
  30 C :   -0.068028    0.826455
  31 H :    0.043377    0.008073
  32 C :   -0.102443    0.008679
  33 H :    0.055202    0.046184
  34 H :    0.051030    0.015966
  35 C :   -0.094892    0.010291
  36 H :    0.042542   -0.000017
  37 H :    0.044704   -0.000009
  38 C :   -0.086472    0.000947
  39 H :    0.036080    0.000176
  40 H :    0.035850    0.000359
  41 C :   -0.069712    0.000076
  42 H :    0.047970    0.000000
  43 H :    0.033635    0.000000
  44 H :    0.033456   -0.000038
  45 H :    0.054239   -0.000001

  Mayer bond orders larger than 0.100000
B(  0-C ,  4-C ) :   0.9155 B(  0-C , 41-C ) :   2.6956 B(  1-C ,  2-C ) :   1.3701
B(  1-C ,  3-C ) :   0.1197 B(  1-C ,  5-C ) :   0.1061 B(  1-C ,  6-C ) :   1.4842
B(  1-C , 45-H ) :   0.9825 B(  2-C ,  3-C ) :   1.4465 B(  2-C ,  4-C ) :   0.1074
B(  2-C ,  9-C ) :   0.8971 B(  3-C ,  4-C ) :   1.4237 B(  3-C ,  7-H ) :   0.9820
B(  4-C ,  5-C ) :   1.3826 B(  4-C ,  6-C ) :   0.1113 B(  5-C ,  6-C ) :   1.4228
B(  5-C , 21-C ) :   0.9466 B(  6-C ,  8-H ) :   0.9790 B(  9-C , 10-H ) :   0.9697
B(  9-C , 11-H ) :   0.9672 B(  9-C , 12-C ) :   1.0201 B( 12-C , 13-H ) :   0.9639
B( 12-C , 14-H ) :   0.9604 B( 12-C , 15-C ) :   0.9842 B( 15-C , 16-H ) :   0.9725
B( 15-C , 17-H ) :   0.9719 B( 15-C , 18-C ) :   0.9560 B( 18-C , 19-H ) :   0.9720
B( 18-C , 20-H ) :   0.9717 B( 18-C , 43-H ) :   0.9685 B( 21-C , 22-H ) :   0.9566
B( 21-C , 23-H ) :   0.9585 B( 21-C , 24-C ) :   1.0073 B( 24-C , 25-H ) :   0.9657
B( 24-C , 26-H ) :   0.9574 B( 24-C , 27-C ) :   0.9773 B( 27-C , 28-H ) :   0.9694
B( 27-C , 29-H ) :   0.9557 B( 27-C , 30-C ) :   0.9759 B( 30-C , 31-H ) :   1.0068
B( 30-C , 32-C ) :   0.9795 B( 32-C , 33-H ) :   0.9559 B( 32-C , 34-H ) :   0.9744
B( 32-C , 35-C ) :   0.9817 B( 35-C , 36-H ) :   0.9766 B( 35-C , 37-H ) :   0.9721
B( 35-C , 38-C ) :   0.9570 B( 38-C , 39-H ) :   0.9710 B( 38-C , 40-H ) :   0.9732
B( 38-C , 44-H ) :   0.9688 B( 41-C , 42-H ) :   0.9842

FINAL SINGLE POINT ENERGY      -739.774620525603

DIPOLE MOMENT
-------------
                                X             Y             Z
Electronic contribution:      4.20375     -10.98357      -0.17743
Nuclear contribution   :     -4.44592      11.00378       0.11775
                        -----------------------------------------
Total Dipole Moment    :     -0.24217       0.02020      -0.05968
                        -----------------------------------------
Magnitude (a.u.)       :      0.25023
Magnitude (Debye)      :      0.63605

Rotational constants in cm-1:     0.034304     0.002976     0.002760
Rotational constants in MHz :  1028.401036    89.219646    82.746430

CHEMICAL SHIELDING SUMMARY (ppm)  --  Orbital contribution
----------------------------------------------------------

  Nucleus  Element    Isotropic     Anisotropy
  -------  -------  ------------   ------------
      7       H           24.205         12.772
      8       H           24.508         10.753
     10       H           28.938          5.589
     11       H           28.895          5.315
     13       H           30.014          4.471
     14       H           29.941          4.813
     16       H           30.185          6.631
     17       H           30.183          6.681
     19       H           30.724          7.957
     20       H           30.722          7.932
     22       H           28.753          5.781
     23       H           28.699          6.122
     25       H           29.841          5.262
     26       H           29.777          4.975
     28       H           29.367          4.490
     29       H           29.038          5.197
     31       H           27.282          8.556
     33       H           29.152          5.369
     34       H           29.494          3.758
     36       H           30.070          6.532
     37       H           30.020          6.172
     39       H           30.837          7.978
     40       H           30.789          8.081
     42       H           28.495         10.757
     43       H           30.520         10.232
     44       H           30.562          9.874
     45       H           24.483          8.753

                             ****ORCA TERMINATED NORMALLY****
TOTAL RUN TIME: 0 days 1 hours 3 minutes 42 seconds 572 msec
