                         Program Version 5.0.4 -  RELEASE  -
|  1> ! B3LYP EPR-II AUTOAUX
|  2> %pal nprocs 16 end
|  3> *XYZFile 0 2 opt_EPRII.xyz
|  4> %EPRNMR
|  5>         GTENSOR   TRUE
|  6>         NUCLEI    = ALL H {SHIFT, AISO, ADIP, AORB}
|  7>         ORI       CenterOfElCharge
|  8> END
|  9>
| 10>                          ****END OF INPUT****

CARTESIAN COORDINATES (ANGSTROEM)
---------------------------------
  C      4.305985   -0.105874   -0.029654
  C      0.090699    0.037263   -0.298425
  C      0.722838   -1.212509   -0.143433
  C      2.121823   -1.222354   -0.060561
  C      2.873890   -0.026683   -0.124256
  C      2.231004    1.230473   -0.275467
  C      0.827866    1.227034   -0.362237
  H      2.660870   -2.156090    0.056151
  H      0.295462    2.165179   -0.480162
  C     -0.126129   -2.476691   -0.063131
  H     -0.787453   -2.504634   -0.940125
  H     -0.791368   -2.388970    0.807486
  C      0.633682   -3.809664    0.028958
  H      1.294140   -3.920459   -0.841431
  H      1.281606   -3.807374    0.915508
  C     -0.308038   -5.024871    0.104541
  H     -0.970725   -4.915341    0.973473
  H     -0.958337   -5.035405   -0.780405
  C      0.445654   -6.362799    0.202588
  H      1.082505   -6.390812    1.093931
  H      1.090104   -6.516616   -0.670270
  C      3.060857    2.504573   -0.332047
  H      3.671819    2.556614    0.579280
  H      3.782777    2.411541   -1.154603
  C      2.284067    3.820431   -0.489594
  H      1.692076    3.798850   -1.413924
  H      1.574297    3.941467    0.338107
  C      3.219136    5.045825   -0.524035
  H      3.826920    5.070206    0.392951
  H      3.946282    4.910856   -1.347478
  C      2.500375    6.354924   -0.683024
  H      1.565155    6.366079   -1.244010
  C      3.176931    7.666666   -0.404514
  H      3.870991    7.917443   -1.229533
  H      3.813574    7.570442    0.487854
  C      2.203061    8.847819   -0.214383
  H      1.578354    8.943933   -1.112063
  H      1.522732    8.618580    0.615038
  C      2.922169   10.180213    0.057375
  H      3.537268   10.117479    0.962211
  H      3.583605   10.447823   -0.774612
  C      5.521961   -0.174530    0.049890
  H      6.583672   -0.236015    0.120931
  H     -0.248062   -7.208013    0.259966
  H      2.207736   10.998600    0.194366
  H     -0.994890    0.080569   -0.369294

 Total Charge           Charge          ....    0
 Multiplicity           Mult            ....    2
 Number of Electrons    NEL             ....  141
 Basis Dimension        Dim             ....  512

ORBITAL ENERGIES
----------------
                 SPIN UP ORBITALS
  NO   OCC          E(Eh)            E(eV)
   0   1.0000     -10.216456      -278.0039
   1   1.0000     -10.205975      -277.7187
   2   1.0000     -10.202427      -277.6222
   3   1.0000     -10.201944      -277.6090
   4   1.0000     -10.193828      -277.3882
   5   1.0000     -10.192942      -277.3641
   6   1.0000     -10.192257      -277.3454
   7   1.0000     -10.191733      -277.3311
   8   1.0000     -10.187654      -277.2201
   9   1.0000     -10.184975      -277.1473
  10   1.0000     -10.183605      -277.1100
  11   1.0000     -10.182343      -277.0756
  12   1.0000     -10.181299      -277.0472
  13   1.0000     -10.180770      -277.0328
  14   1.0000     -10.180394      -277.0226
  15   1.0000     -10.180340      -277.0211
  16   1.0000     -10.178357      -276.9672
  17   1.0000     -10.170935      -276.7652
  18   1.0000     -10.169009      -276.7128
  19   1.0000      -0.861028       -23.4298
  20   1.0000      -0.809846       -22.0370
  21   1.0000      -0.799784       -21.7632
  22   1.0000      -0.781192       -21.2573
  23   1.0000      -0.775329       -21.0978
  24   1.0000      -0.756139       -20.5756
  25   1.0000      -0.729007       -19.8373
  26   1.0000      -0.721638       -19.6368
  27   1.0000      -0.702845       -19.1254
  28   1.0000      -0.670715       -18.2511
  29   1.0000      -0.638490       -17.3742
  30   1.0000      -0.617772       -16.8104
  31   1.0000      -0.609114       -16.5748
  32   1.0000      -0.584823       -15.9138
  33   1.0000      -0.578035       -15.7291
  34   1.0000      -0.562028       -15.2936
  35   1.0000      -0.560707       -15.2576
  36   1.0000      -0.527345       -14.3498
  37   1.0000      -0.493362       -13.4251
  38   1.0000      -0.470727       -12.8091
  39   1.0000      -0.469974       -12.7887
  40   1.0000      -0.466417       -12.6918
  41   1.0000      -0.459679       -12.5085
  42   1.0000      -0.454446       -12.3661
  43   1.0000      -0.428590       -11.6625
  44   1.0000      -0.424977       -11.5642
  45   1.0000      -0.420809       -11.4508
  46   1.0000      -0.419953       -11.4275
  47   1.0000      -0.412828       -11.2336
  48   1.0000      -0.406910       -11.0726
  49   1.0000      -0.402860       -10.9624
  50   1.0000      -0.383591       -10.4381
  51   1.0000      -0.378857       -10.3092
  52   1.0000      -0.373343       -10.1592
  53   1.0000      -0.364460        -9.9175
  54   1.0000      -0.361234        -9.8297
  55   1.0000      -0.351623        -9.5681
  56   1.0000      -0.350055        -9.5255
  57   1.0000      -0.347435        -9.4542
  58   1.0000      -0.332350        -9.0437
  59   1.0000      -0.331633        -9.0242
  60   1.0000      -0.327464        -8.9107
  61   1.0000      -0.325286        -8.8515
  62   1.0000      -0.324914        -8.8414
  63   1.0000      -0.323536        -8.8039
  64   1.0000      -0.319150        -8.6845
  65   1.0000      -0.309878        -8.4322
  66   1.0000      -0.298411        -8.1202
  67   1.0000      -0.271317        -7.3829
  68   1.0000      -0.240662        -6.5488
  69   1.0000      -0.223011        -6.0684
  70   1.0000      -0.179981        -4.8975
  71   0.0000      -0.032947        -0.8965
  72   0.0000      -0.000211        -0.0057
  73   0.0000       0.020978         0.5708
  74   0.0000       0.024165         0.6576
  75   0.0000       0.026374         0.7177

                 SPIN DOWN ORBITALS
  NO   OCC          E(Eh)            E(eV)
   0   1.0000     -10.216450      -278.0037
   1   1.0000     -10.205984      -277.7189
   2   1.0000     -10.202423      -277.6220
   3   1.0000     -10.201945      -277.6090
   4   1.0000     -10.193830      -277.3882
   5   1.0000     -10.192944      -277.3641
   6   1.0000     -10.192256      -277.3454
   7   1.0000     -10.191727      -277.3310
   8   1.0000     -10.187654      -277.2202
   9   1.0000     -10.183593      -277.1096
  10   1.0000     -10.183210      -277.0992
  11   1.0000     -10.181298      -277.0472
  12   1.0000     -10.181256      -277.0461
  13   1.0000     -10.180770      -277.0328
  14   1.0000     -10.180097      -277.0145
  15   1.0000     -10.178083      -276.9597
  16   1.0000     -10.171230      -276.7732
  17   1.0000     -10.170935      -276.7652
  18   1.0000     -10.168999      -276.7125
  19   1.0000      -0.861008       -23.4292
  20   1.0000      -0.808207       -21.9924
  21   1.0000      -0.793946       -21.6044
  22   1.0000      -0.779886       -21.2218
  23   1.0000      -0.775179       -21.0937
  24   1.0000      -0.754596       -20.5336
  25   1.0000      -0.724659       -19.7190
  26   1.0000      -0.721617       -19.6362
  27   1.0000      -0.699507       -19.0345
  28   1.0000      -0.669956       -18.2304
  29   1.0000      -0.637451       -17.3459
  30   1.0000      -0.617229       -16.7956
  31   1.0000      -0.606896       -16.5145
  32   1.0000      -0.583585       -15.8801
  33   1.0000      -0.577373       -15.7111
  34   1.0000      -0.560479       -15.2514
  35   1.0000      -0.546165       -14.8619
  36   1.0000      -0.527067       -14.3422
  37   1.0000      -0.493049       -13.4166
  38   1.0000      -0.470676       -12.8078
  39   1.0000      -0.467308       -12.7161
  40   1.0000      -0.464138       -12.6298
  41   1.0000      -0.459391       -12.5007
  42   1.0000      -0.452425       -12.3111
  43   1.0000      -0.426446       -11.6042
  44   1.0000      -0.423994       -11.5375
  45   1.0000      -0.419826       -11.4241
  46   1.0000      -0.419398       -11.4124
  47   1.0000      -0.412559       -11.2263
  48   1.0000      -0.401250       -10.9186
  49   1.0000      -0.399784       -10.8787
  50   1.0000      -0.380934       -10.3657
  51   1.0000      -0.376170       -10.2361
  52   1.0000      -0.372495       -10.1361
  53   1.0000      -0.363704        -9.8969
  54   1.0000      -0.359699        -9.7879
  55   1.0000      -0.350695        -9.5429
  56   1.0000      -0.348669        -9.4878
  57   1.0000      -0.345919        -9.4129
  58   1.0000      -0.331300        -9.0151
  59   1.0000      -0.330015        -8.9802
  60   1.0000      -0.325965        -8.8700
  61   1.0000      -0.324795        -8.8381
  62   1.0000      -0.324219        -8.8224
  63   1.0000      -0.321740        -8.7550
  64   1.0000      -0.318834        -8.6759
  65   1.0000      -0.307144        -8.3578
  66   1.0000      -0.298382        -8.1194
  67   1.0000      -0.271310        -7.3827
  68   1.0000      -0.240618        -6.5475
  69   1.0000      -0.222956        -6.0669
  70   0.0000      -0.036818        -1.0019
  71   0.0000      -0.032802        -0.8926
  72   0.0000      -0.000107        -0.0029
  73   0.0000       0.021055         0.5729
  74   0.0000       0.024507         0.6669

MULLIKEN ATOMIC CHARGES AND SPIN POPULATIONS
--------------------------------------------
   0 C :   -0.004553   -0.000077
   1 C :   -0.329132   -0.000208
   2 C :    0.498479    0.000286
   3 C :   -0.437468   -0.000189
   4 C :    0.418842    0.000459
   5 C :    0.275625   -0.000961
   6 C :   -0.241800    0.000606
   7 H :    0.130983    0.000009
   8 H :    0.116594   -0.000023
   9 C :   -0.398434   -0.000017
  10 H :    0.146898    0.000013
  11 H :    0.151207    0.000014
  12 C :   -0.266730    0.000002
  13 H :    0.146571    0.000000
  14 H :    0.141816    0.000000
  15 C :   -0.265569   -0.000000
  16 H :    0.143438    0.000000
  17 H :    0.143806    0.000000
  18 C :   -0.511040    0.000000
  19 H :    0.160232    0.000000
  20 H :    0.160612    0.000000
  21 C :   -0.382888    0.000739
  22 H :    0.157011    0.000195
  23 H :    0.155275    0.000043
  24 C :   -0.301225    0.011886
  25 H :    0.146684   -0.000558
  26 H :    0.157307   -0.001136
  27 C :   -0.279307   -0.065372
  28 H :    0.148690    0.018516
  29 H :    0.148468    0.053525
  30 C :   -0.134204    1.012355
  31 H :    0.113885   -0.048813
  32 C :   -0.285070   -0.063914
  33 H :    0.148865    0.053926
  34 H :    0.145344    0.017373
  35 C :   -0.276943    0.012324
  36 H :    0.147590   -0.000639
  37 H :    0.158581   -0.000708
  38 C :   -0.510971    0.000114
  39 H :    0.160616    0.000169
  40 H :    0.159164    0.000162
  41 C :   -0.536567    0.000096
  42 H :    0.181524   -0.000004
  43 H :    0.145077   -0.000000
  44 H :    0.147654   -0.000202
  45 H :    0.105065    0.000007
Sum of atomic charges         :    0.0000000

LOEWDIN ATOMIC CHARGES AND SPIN POPULATIONS
-------------------------------------------
   0 C :   -0.029052   -0.000011
   1 C :   -0.036425   -0.000114
   2 C :   -0.069350    0.000228
   3 C :   -0.010116   -0.000101
   4 C :   -0.075302    0.000260
   5 C :   -0.042915   -0.000192
   6 C :   -0.039329    0.000296
   7 H :    0.058863   -0.000000
   8 H :    0.052590    0.000012
   9 C :   -0.057114    0.000002
  10 H :    0.053654    0.000010
  11 H :    0.054525    0.000010
  12 C :   -0.079687    0.000000
  13 H :    0.045541    0.000000
  14 H :    0.044347    0.000000
  15 C :   -0.091013    0.000000
  16 H :    0.040600    0.000000
  17 H :    0.040517    0.000000
  18 C :   -0.078542   -0.000000
  19 H :    0.034126    0.000000
  20 H :    0.034152    0.000000
  21 C :   -0.044819    0.001014
  22 H :    0.059254    0.000153
  23 H :    0.058821    0.000391
  24 C :   -0.074516    0.008933
  25 H :    0.043965    0.000008
  26 H :    0.046077   -0.000027
  27 C :   -0.092078    0.008321
  28 H :    0.049624    0.016487
  29 H :    0.053319    0.043863
  30 C :   -0.064136    0.832271
  31 H :    0.040158    0.008899
  32 C :   -0.097256    0.008307
  33 H :    0.052489    0.043982
  34 H :    0.048439    0.015226
  35 C :   -0.088865    0.010301
  36 H :    0.039842    0.000008
  37 H :    0.041939    0.000021
  38 C :   -0.080313    0.000897
  39 H :    0.033728    0.000161
  40 H :    0.033495    0.000338
  41 C :   -0.068189    0.000084
  42 H :    0.044430    0.000000
  43 H :    0.031389    0.000000
  44 H :    0.031203   -0.000038
  45 H :    0.051929   -0.000001

  Mayer bond orders larger than 0.100000
B(  0-C ,  4-C ) :   0.9113 B(  0-C , 41-C ) :   2.7019 B(  1-C ,  2-C ) :   1.3723
B(  1-C ,  3-C ) :   0.1178 B(  1-C ,  5-C ) :   0.1021 B(  1-C ,  6-C ) :   1.4830
B(  1-C , 45-H ) :   0.9819 B(  2-C ,  3-C ) :   1.4464 B(  2-C ,  4-C ) :   0.1032
B(  2-C ,  9-C ) :   0.8987 B(  3-C ,  4-C ) :   1.4217 B(  3-C ,  7-H ) :   0.9808
B(  4-C ,  5-C ) :   1.3805 B(  4-C ,  6-C ) :   0.1078 B(  5-C ,  6-C ) :   1.4230
B(  5-C , 21-C ) :   0.9466 B(  6-C ,  8-H ) :   0.9778 B(  9-C , 10-H ) :   0.9700
B(  9-C , 11-H ) :   0.9670 B(  9-C , 12-C ) :   1.0187 B( 12-C , 13-H ) :   0.9652
B( 12-C , 14-H ) :   0.9607 B( 12-C , 15-C ) :   0.9825 B( 15-C , 16-H ) :   0.9732
B( 15-C , 17-H ) :   0.9724 B( 15-C , 18-C ) :   0.9562 B( 18-C , 19-H ) :   0.9720
B( 18-C , 20-H ) :   0.9718 B( 18-C , 43-H ) :   0.9686 B( 21-C , 22-H ) :   0.9564
B( 21-C , 23-H ) :   0.9588 B( 21-C , 24-C ) :   1.0064 B( 24-C , 25-H ) :   0.9662
B( 24-C , 26-H ) :   0.9583 B( 24-C , 27-C ) :   0.9763 B( 27-C , 28-H ) :   0.9701
B( 27-C , 29-H ) :   0.9570 B( 27-C , 30-C ) :   0.9725 B( 30-C , 31-H ) :   1.0064
B( 30-C , 32-C ) :   0.9768 B( 32-C , 33-H ) :   0.9573 B( 32-C , 34-H ) :   0.9751
B( 32-C , 35-C ) :   0.9804 B( 35-C , 36-H ) :   0.9769 B( 35-C , 37-H ) :   0.9724
B( 35-C , 38-C ) :   0.9572 B( 38-C , 39-H ) :   0.9711 B( 38-C , 40-H ) :   0.9732
B( 38-C , 44-H ) :   0.9689 B( 41-C , 42-H ) :   0.9833

FINAL SINGLE POINT ENERGY      -739.775808899327

DIPOLE MOMENT
-------------
                                X             Y             Z
Electronic contribution:      4.18549     -11.02292      -0.47601
Nuclear contribution   :     -4.43813      11.04689       0.41935
                        -----------------------------------------
Total Dipole Moment    :     -0.25264       0.02397      -0.05666
                        -----------------------------------------
Magnitude (a.u.)       :      0.26002
Magnitude (Debye)      :      0.66093

Rotational constants in cm-1:     0.034096     0.002963     0.002749
Rotational constants in MHz :  1022.175865    88.833612    82.419374

CHEMICAL SHIELDING SUMMARY (ppm)  --  Orbital contribution
----------------------------------------------------------

  Nucleus  Element    Isotropic     Anisotropy
  -------  -------  ------------   ------------
      7       H           22.824          7.311
      8       H           70.830         30.489
     10       H           29.268         18.428
     11       H           34.038         18.504
     13       H           60.966         12.411
     14       H           64.740         10.508
     16       H            7.880         19.903
     17       H            3.483         20.729
     19       H           16.308         12.236
     20       H           11.769         13.629
     22       H           76.278         40.179
     23       H           71.100         38.501
     25       H           81.599         14.734
     26       H           87.287          5.624
     28       H           62.664         16.740
     29       H           55.994         11.087
     31       H           64.719          6.415
     33       H            3.209         24.336
     34       H           47.302          8.662
     36       H           21.345         13.871
     37       H           64.997          4.794
     39       H            1.548         12.475
     40       H          -37.597         23.448
     42       H          -37.540          9.901
     43       H          -99.591          9.792
     44       H          -85.352         30.158
     45       H           26.166          8.408

                             ****ORCA TERMINATED NORMALLY****
TOTAL RUN TIME: 0 days 1 hours 3 minutes 27 seconds 361 msec
