                         Program Version 5.0.4 -  RELEASE  -
|  1> ! B3LYP EPR-II OPT
|  2> %pal nprocs 16 end
|  3> *XYZFile 0 2 model.xyz
|  4>
|  5>                          ****END OF INPUT****
 Total Charge           Charge          ....    0
 Multiplicity           Mult            ....    2
 Number of Electrons    NEL             ....  141
FINAL SINGLE POINT ENERGY      -739.775233262311
FINAL SINGLE POINT ENERGY      -739.776355547898
FINAL SINGLE POINT ENERGY      -739.776417416401
FINAL SINGLE POINT ENERGY      -739.776430716463
FINAL SINGLE POINT ENERGY      -739.776431672700
                    ***********************HURRAY********************

CARTESIAN COORDINATES (ANGSTROEM)
---------------------------------
  C      4.305985   -0.105874   -0.029654
  C      0.090699    0.037263   -0.298425
  C      0.722838   -1.212509   -0.143433
  C      2.121823   -1.222354   -0.060561
  C      2.873890   -0.026683   -0.124256
  C      2.231004    1.230473   -0.275467
  C      0.827866    1.227034   -0.362237
  H      2.660870   -2.156090    0.056151
  H      0.295462    2.165179   -0.480162
  C     -0.126129   -2.476691   -0.063131
  H     -0.787453   -2.504634   -0.940125
  H     -0.791368   -2.388970    0.807486
  C      0.633682   -3.809664    0.028958
  H      1.294140   -3.920459   -0.841431
  H      1.281606   -3.807374    0.915508
  C     -0.308038   -5.024871    0.104541
  H     -0.970725   -4.915341    0.973473
  H     -0.958337   -5.035405   -0.780405
  C      0.445654   -6.362799    0.202588
  H      1.082505   -6.390812    1.093931
  H      1.090104   -6.516616   -0.670270
  C      3.060857    2.504573   -0.332047
  H      3.671819    2.556614    0.579280
  H      3.782777    2.411541   -1.154603
  C      2.284067    3.820431   -0.489594
  H      1.692076    3.798850   -1.413924
  H      1.574297    3.941467    0.338107
  C      3.219136    5.045825   -0.524035
  H      3.826920    5.070206    0.392951
  H      3.946282    4.910856   -1.347478
  C      2.500375    6.354924   -0.683024
  H      1.565155    6.366079   -1.244010
  C      3.176931    7.666666   -0.404514
  H      3.870991    7.917443   -1.229533
  H      3.813574    7.570442    0.487854
  C      2.203061    8.847819   -0.214383
  H      1.578354    8.943933   -1.112063
  H      1.522732    8.618580    0.615038
  C      2.922169   10.180213    0.057375
  H      3.537268   10.117479    0.962211
  H      3.583605   10.447823   -0.774612
  C      5.521961   -0.174530    0.049890
  H      6.583672   -0.236015    0.120931
  H     -0.248062   -7.208013    0.259966
  H      2.207736   10.998600    0.194366
  H     -0.994890    0.080569   -0.369294

 Multiplicity           Mult            ....    2
 Number of Electrons    NEL             ....  141
 Basis Dimension        Dim             ....  512

ORBITAL ENERGIES
----------------
                 SPIN UP ORBITALS
  NO   OCC          E(Eh)            E(eV)
   0   1.0000     -10.216446      -278.0036
   1   1.0000     -10.205926      -277.7174
   2   1.0000     -10.202401      -277.6215
   3   1.0000     -10.201844      -277.6063
   4   1.0000     -10.193749      -277.3860
   5   1.0000     -10.192920      -277.3634
   6   1.0000     -10.192173      -277.3431
   7   1.0000     -10.191694      -277.3301
   8   1.0000     -10.187604      -277.2188
   9   1.0000     -10.184969      -277.1471
  10   1.0000     -10.183553      -277.1086
  11   1.0000     -10.182320      -277.0750
  12   1.0000     -10.181241      -277.0456
  13   1.0000     -10.180706      -277.0311
  14   1.0000     -10.180373      -277.0220
  15   1.0000     -10.180271      -277.0193
  16   1.0000     -10.178295      -276.9655
  17   1.0000     -10.170890      -276.7640
  18   1.0000     -10.168967      -276.7117
  19   1.0000      -0.861038       -23.4300
  20   1.0000      -0.809844       -22.0370
  21   1.0000      -0.799785       -21.7633
  22   1.0000      -0.781189       -21.2572
  23   1.0000      -0.775329       -21.0978
  24   1.0000      -0.756139       -20.5756
  25   1.0000      -0.729009       -19.8373
  26   1.0000      -0.721637       -19.6367
  27   1.0000      -0.702846       -19.1254
  28   1.0000      -0.670718       -18.2512
  29   1.0000      -0.638491       -17.3742
  30   1.0000      -0.617777       -16.8106
  31   1.0000      -0.609117       -16.5749
  32   1.0000      -0.584827       -15.9140
  33   1.0000      -0.578035       -15.7291
  34   1.0000      -0.562038       -15.2938
  35   1.0000      -0.560710       -15.2577
  36   1.0000      -0.527350       -14.3499
  37   1.0000      -0.493364       -13.4251
  38   1.0000      -0.470722       -12.8090
  39   1.0000      -0.469974       -12.7886
  40   1.0000      -0.466420       -12.6919
  41   1.0000      -0.459682       -12.5086
  42   1.0000      -0.454447       -12.3661
  43   1.0000      -0.428590       -11.6625
  44   1.0000      -0.424972       -11.5641
  45   1.0000      -0.420806       -11.4507
  46   1.0000      -0.419954       -11.4275
  47   1.0000      -0.412822       -11.2335
  48   1.0000      -0.406910       -11.0726
  49   1.0000      -0.402855       -10.9622
  50   1.0000      -0.383594       -10.4381
  51   1.0000      -0.378860       -10.3093
  52   1.0000      -0.373342       -10.1591
  53   1.0000      -0.364462        -9.9175
  54   1.0000      -0.361235        -9.8297
  55   1.0000      -0.351622        -9.5681
  56   1.0000      -0.350057        -9.5255
  57   1.0000      -0.347442        -9.4544
  58   1.0000      -0.332352        -9.0437
  59   1.0000      -0.331631        -9.0241
  60   1.0000      -0.327469        -8.9109
  61   1.0000      -0.325289        -8.8516
  62   1.0000      -0.324910        -8.8413
  63   1.0000      -0.323537        -8.8039
  64   1.0000      -0.319150        -8.6845
  65   1.0000      -0.309883        -8.4323
  66   1.0000      -0.298413        -8.1202
  67   1.0000      -0.271313        -7.3828
  68   1.0000      -0.240677        -6.5492
  69   1.0000      -0.223030        -6.0690
  70   1.0000      -0.180009        -4.8983
  71   0.0000      -0.032967        -0.8971
  72   0.0000      -0.000230        -0.0063
  73   0.0000       0.021174         0.5762
  74   0.0000       0.024410         0.6642
  75   0.0000       0.026635         0.7248

                 SPIN DOWN ORBITALS
  NO   OCC          E(Eh)            E(eV)
   0   1.0000     -10.216440      -278.0035
   1   1.0000     -10.205935      -277.7176
   2   1.0000     -10.202397      -277.6213
   3   1.0000     -10.201845      -277.6063
   4   1.0000     -10.193751      -277.3861
   5   1.0000     -10.192922      -277.3635
   6   1.0000     -10.192172      -277.3431
   7   1.0000     -10.191689      -277.3299
   8   1.0000     -10.187604      -277.2188
   9   1.0000     -10.183541      -277.1082
  10   1.0000     -10.183186      -277.0986
  11   1.0000     -10.181241      -277.0456
  12   1.0000     -10.181233      -277.0454
  13   1.0000     -10.180706      -277.0311
  14   1.0000     -10.180029      -277.0127
  15   1.0000     -10.178021      -276.9580
  16   1.0000     -10.171226      -276.7731
  17   1.0000     -10.170890      -276.7640
  18   1.0000     -10.168957      -276.7114
  19   1.0000      -0.861019       -23.4295
  20   1.0000      -0.808203       -21.9923
  21   1.0000      -0.793945       -21.6043
  22   1.0000      -0.779884       -21.2217
  23   1.0000      -0.775179       -21.0937
  24   1.0000      -0.754597       -20.5336
  25   1.0000      -0.724661       -19.7190
  26   1.0000      -0.721616       -19.6362
  27   1.0000      -0.699509       -19.0346
  28   1.0000      -0.669958       -18.2305
  29   1.0000      -0.637452       -17.3459
  30   1.0000      -0.617234       -16.7958
  31   1.0000      -0.606899       -16.5145
  32   1.0000      -0.583588       -15.8802
  33   1.0000      -0.577373       -15.7111
  34   1.0000      -0.560482       -15.2515
  35   1.0000      -0.546177       -14.8622
  36   1.0000      -0.527072       -14.3424
  37   1.0000      -0.493052       -13.4166
  38   1.0000      -0.470671       -12.8076
  39   1.0000      -0.467311       -12.7162
  40   1.0000      -0.464138       -12.6298
  41   1.0000      -0.459394       -12.5007
  42   1.0000      -0.452427       -12.3112
  43   1.0000      -0.426445       -11.6042
  44   1.0000      -0.423989       -11.5373
  45   1.0000      -0.419827       -11.4241
  46   1.0000      -0.419393       -11.4123
  47   1.0000      -0.412553       -11.2262
  48   1.0000      -0.401247       -10.9185
  49   1.0000      -0.399783       -10.8786
  50   1.0000      -0.380937       -10.3658
  51   1.0000      -0.376173       -10.2362
  52   1.0000      -0.372494       -10.1361
  53   1.0000      -0.363707        -9.8970
  54   1.0000      -0.359700        -9.7879
  55   1.0000      -0.350694        -9.5429
  56   1.0000      -0.348672        -9.4878
  57   1.0000      -0.345927        -9.4131
  58   1.0000      -0.331301        -9.0152
  59   1.0000      -0.330012        -8.9801
  60   1.0000      -0.325968        -8.8701
  61   1.0000      -0.324790        -8.8380
  62   1.0000      -0.324226        -8.8226
  63   1.0000      -0.321743        -8.7551
  64   1.0000      -0.318834        -8.6759
  65   1.0000      -0.307148        -8.3579
  66   1.0000      -0.298383        -8.1194
  67   1.0000      -0.271306        -7.3826
  68   1.0000      -0.240633        -6.5480
  69   1.0000      -0.222975        -6.0675
  70   0.0000      -0.036862        -1.0031
  71   0.0000      -0.032823        -0.8932
  72   0.0000      -0.000126        -0.0034
  73   0.0000       0.021255         0.5784
  74   0.0000       0.024751         0.6735

MULLIKEN ATOMIC CHARGES AND SPIN POPULATIONS
--------------------------------------------
   0 C :   -0.004043   -0.000079
   1 C :   -0.328658   -0.000208
   2 C :    0.498844    0.000286
   3 C :   -0.436652   -0.000189
   4 C :    0.418745    0.000459
   5 C :    0.276046   -0.000961
   6 C :   -0.241270    0.000609
   7 H :    0.130231    0.000009
   8 H :    0.115751   -0.000022
   9 C :   -0.397695   -0.000017
  10 H :    0.146402    0.000013
  11 H :    0.150671    0.000014
  12 C :   -0.265532    0.000002
  13 H :    0.146122    0.000000
  14 H :    0.141391    0.000000
  15 C :   -0.264622   -0.000000
  16 H :    0.143029    0.000000
  17 H :    0.143397    0.000000
  18 C :   -0.510049    0.000000
  19 H :    0.159858    0.000000
  20 H :    0.160244    0.000000
  21 C :   -0.382458    0.000754
  22 H :    0.156563    0.000195
  23 H :    0.154857    0.000042
  24 C :   -0.299682    0.011843
  25 H :    0.146113   -0.000557
  26 H :    0.156778   -0.001135
  27 C :   -0.278394   -0.065351
  28 H :    0.148270    0.018503
  29 H :    0.147898    0.053518
  30 C :   -0.133834    1.012452
  31 H :    0.113424   -0.048857
  32 C :   -0.284420   -0.063884
  33 H :    0.148310    0.053913
  34 H :    0.144958    0.017354
  35 C :   -0.275407    0.012282
  36 H :    0.147089   -0.000637
  37 H :    0.158080   -0.000707
  38 C :   -0.510174    0.000127
  39 H :    0.160286    0.000168
  40 H :    0.158846    0.000162
  41 C :   -0.536809    0.000098
  42 H :    0.181216   -0.000004
  43 H :    0.144628   -0.000000
  44 H :    0.147230   -0.000204
  45 H :    0.104424    0.000007
Sum of atomic charges         :   -0.0000000

LOEWDIN ATOMIC CHARGES AND SPIN POPULATIONS
-------------------------------------------
   0 C :   -0.028938   -0.000012
   1 C :   -0.036459   -0.000114
   2 C :   -0.069334    0.000228
   3 C :   -0.010009   -0.000101
   4 C :   -0.075319    0.000260
   5 C :   -0.042866   -0.000192
   6 C :   -0.039308    0.000296
   7 H :    0.058824   -0.000000
   8 H :    0.052543    0.000012
   9 C :   -0.057028    0.000002
  10 H :    0.053597    0.000010
  11 H :    0.054464    0.000010
  12 C :   -0.079596    0.000000
  13 H :    0.045505    0.000000
  14 H :    0.044312    0.000000
  15 C :   -0.090922    0.000000
  16 H :    0.040565    0.000000
  17 H :    0.040484    0.000000
  18 C :   -0.078442   -0.000000
  19 H :    0.034083    0.000000
  20 H :    0.034112    0.000000
  21 C :   -0.044761    0.001015
  22 H :    0.059206    0.000153
  23 H :    0.058776    0.000391
  24 C :   -0.074404    0.008929
  25 H :    0.043918    0.000008
  26 H :    0.046037   -0.000026
  27 C :   -0.092023    0.008342
  28 H :    0.049585    0.016487
  29 H :    0.053269    0.043854
  30 C :   -0.064076    0.832261
  31 H :    0.040140    0.008892
  32 C :   -0.097205    0.008330
  33 H :    0.052438    0.043971
  34 H :    0.048401    0.015222
  35 C :   -0.088737    0.010295
  36 H :    0.039798    0.000008
  37 H :    0.041895    0.000022
  38 C :   -0.080233    0.000898
  39 H :    0.033693    0.000161
  40 H :    0.033465    0.000338
  41 C :   -0.068240    0.000085
  42 H :    0.044403    0.000000
  43 H :    0.031342    0.000000
  44 H :    0.031163   -0.000038
  45 H :    0.051885   -0.000001

  Mayer bond orders larger than 0.100000
B(  0-C ,  4-C ) :   0.9109 B(  0-C , 41-C ) :   2.7020 B(  1-C ,  2-C ) :   1.3723
B(  1-C ,  3-C ) :   0.1178 B(  1-C ,  5-C ) :   0.1022 B(  1-C ,  6-C ) :   1.4834
B(  1-C , 45-H ) :   0.9820 B(  2-C ,  3-C ) :   1.4464 B(  2-C ,  4-C ) :   0.1030
B(  2-C ,  9-C ) :   0.8988 B(  3-C ,  4-C ) :   1.4223 B(  3-C ,  7-H ) :   0.9810
B(  4-C ,  5-C ) :   1.3804 B(  4-C ,  6-C ) :   0.1076 B(  5-C ,  6-C ) :   1.4231
B(  5-C , 21-C ) :   0.9464 B(  6-C ,  8-H ) :   0.9779 B(  9-C , 10-H ) :   0.9701
B(  9-C , 11-H ) :   0.9672 B(  9-C , 12-C ) :   1.0186 B( 12-C , 13-H ) :   0.9653
B( 12-C , 14-H ) :   0.9608 B( 12-C , 15-C ) :   0.9826 B( 15-C , 16-H ) :   0.9732
B( 15-C , 17-H ) :   0.9724 B( 15-C , 18-C ) :   0.9564 B( 18-C , 19-H ) :   0.9721
B( 18-C , 20-H ) :   0.9719 B( 18-C , 43-H ) :   0.9687 B( 21-C , 22-H ) :   0.9566
B( 21-C , 23-H ) :   0.9589 B( 21-C , 24-C ) :   1.0065 B( 24-C , 25-H ) :   0.9661
B( 24-C , 26-H ) :   0.9583 B( 24-C , 27-C ) :   0.9766 B( 27-C , 28-H ) :   0.9701
B( 27-C , 29-H ) :   0.9571 B( 27-C , 30-C ) :   0.9726 B( 30-C , 31-H ) :   1.0065
B( 30-C , 32-C ) :   0.9768 B( 32-C , 33-H ) :   0.9574 B( 32-C , 34-H ) :   0.9751
B( 32-C , 35-C ) :   0.9807 B( 35-C , 36-H ) :   0.9770 B( 35-C , 37-H ) :   0.9724
B( 35-C , 38-C ) :   0.9573 B( 38-C , 39-H ) :   0.9712 B( 38-C , 40-H ) :   0.9733
B( 38-C , 44-H ) :   0.9689 B( 41-C , 42-H ) :   0.9834

FINAL SINGLE POINT ENERGY      -739.776431188752

DIPOLE MOMENT
-------------
                                X             Y             Z
Electronic contribution:      4.18585     -11.02299      -0.47611
Nuclear contribution   :     -4.43813      11.04689       0.41935
                        -----------------------------------------
Total Dipole Moment    :     -0.25228       0.02390      -0.05676
                        -----------------------------------------
Magnitude (a.u.)       :      0.25968
Magnitude (Debye)      :      0.66006

Rotational constants in cm-1:     0.034096     0.002963     0.002749
Rotational constants in MHz :  1022.175865    88.833612    82.419374

                             ****ORCA TERMINATED NORMALLY****
TOTAL RUN TIME: 0 days 0 hours 9 minutes 47 seconds 801 msec
