                         Program Version 5.0.4 -  RELEASE  -
|  1> ! B3LYP cc-pVDZ OPT
|  2> %pal nprocs 16 end
|  3> *XYZFile 0 2 model.xyz
|  4>
|  5>                          ****END OF INPUT****
 Total Charge           Charge          ....    0
 Multiplicity           Mult            ....    2
 Number of Electrons    NEL             ....  141
FINAL SINGLE POINT ENERGY      -739.695999038888
                    ***********************HURRAY********************

CARTESIAN COORDINATES (ANGSTROEM)
---------------------------------
  C      4.302806   -0.098134   -0.018100
  C      0.094380    0.040825   -0.250086
  C      0.726644   -1.205804   -0.114693
  C      2.122363   -1.212548   -0.042464
  C      2.873074   -0.019871   -0.100081
  C      2.226449    1.234162   -0.235562
  C      0.826888    1.227637   -0.308566
  H      2.668260   -2.150562    0.061344
  H      0.287878    2.170265   -0.413989
  C     -0.115757   -2.469504   -0.049398
  H     -0.784433   -2.484996   -0.930401
  H     -0.791472   -2.391005    0.823364
  C      0.636859   -3.800618    0.025685
  H      1.310681   -3.896765   -0.845718
  H      1.286960   -3.812799    0.919851
  C     -0.300551   -5.013047    0.073307
  H     -0.976195   -4.917196    0.943743
  H     -0.954030   -5.003610   -0.818966
  C      0.444482   -6.348174    0.148493
  H      1.081377   -6.401246    1.048389
  H      1.099929   -6.491118   -0.727952
  C      3.051057    2.505911   -0.292904
  H      3.668167    2.559803    0.623235
  H      3.785388    2.407214   -1.113607
  C      2.283852    3.819752   -0.458943
  H      1.680300    3.789813   -1.384400
  H      1.569824    3.951823    0.373297
  C      3.215454    5.040204   -0.511554
  H      3.842152    5.071039    0.401948
  H      3.943060    4.895111   -1.344183
  C      2.502381    6.343514   -0.674882
  H      1.558197    6.349126   -1.234730
  C      3.174480    7.653419   -0.417957
  H      3.872970    7.894934   -1.253714
  H      3.826781    7.568284    0.474268
  C      2.206189    8.832605   -0.238778
  H      1.570048    8.914844   -1.139584
  H      1.520708    8.609629    0.598668
  C      2.916990   10.164338    0.011968
  H      3.538968   10.120938    0.922877
  H      3.582459   10.428329   -0.828333
  C      5.514547   -0.173963    0.051006
  H      6.582925   -0.241351    0.113496
  H     -0.254488   -7.199571    0.184421
  H      2.197279   10.989323    0.139374
  H     -0.997339    0.084218   -0.311252

 Multiplicity           Mult            ....    2
 Number of Electrons    NEL             ....  141
 Basis Dimension        Dim             ....  401

ORBITAL ENERGIES
----------------
                 SPIN UP ORBITALS
  NO   OCC          E(Eh)            E(eV)
   0   1.0000     -10.205274      -277.6996
   1   1.0000     -10.195720      -277.4397
   2   1.0000     -10.192121      -277.3417
   3   1.0000     -10.187636      -277.2197
   4   1.0000     -10.186837      -277.1979
   5   1.0000     -10.186372      -277.1853
   6   1.0000     -10.185076      -277.1500
   7   1.0000     -10.184067      -277.1226
   8   1.0000     -10.183474      -277.1064
   9   1.0000     -10.182718      -277.0858
  10   1.0000     -10.182060      -277.0679
  11   1.0000     -10.181372      -277.0492
  12   1.0000     -10.181369      -277.0491
  13   1.0000     -10.181174      -277.0438
  14   1.0000     -10.181115      -277.0422
  15   1.0000     -10.180728      -277.0317
  16   1.0000     -10.179290      -276.9926
  17   1.0000     -10.175678      -276.8943
  18   1.0000     -10.173830      -276.8440
  19   1.0000      -0.863629       -23.5006
  20   1.0000      -0.813186       -22.1279
  21   1.0000      -0.803404       -21.8617
  22   1.0000      -0.784574       -21.3493
  23   1.0000      -0.776578       -21.1318
  24   1.0000      -0.758559       -20.6414
  25   1.0000      -0.731690       -19.9103
  26   1.0000      -0.721266       -19.6266
  27   1.0000      -0.705033       -19.1849
  28   1.0000      -0.672360       -18.2958
  29   1.0000      -0.639181       -17.3930
  30   1.0000      -0.617996       -16.8165
  31   1.0000      -0.609303       -16.5800
  32   1.0000      -0.584551       -15.9065
  33   1.0000      -0.577379       -15.7113
  34   1.0000      -0.561635       -15.2829
  35   1.0000      -0.559923       -15.2363
  36   1.0000      -0.525160       -14.2903
  37   1.0000      -0.493268       -13.4225
  38   1.0000      -0.470387       -12.7999
  39   1.0000      -0.470108       -12.7923
  40   1.0000      -0.467113       -12.7108
  41   1.0000      -0.459849       -12.5131
  42   1.0000      -0.453956       -12.3528
  43   1.0000      -0.430258       -11.7079
  44   1.0000      -0.426991       -11.6190
  45   1.0000      -0.422259       -11.4903
  46   1.0000      -0.419065       -11.4033
  47   1.0000      -0.412983       -11.2378
  48   1.0000      -0.406600       -11.0641
  49   1.0000      -0.405044       -11.0218
  50   1.0000      -0.383820       -10.4443
  51   1.0000      -0.379691       -10.3319
  52   1.0000      -0.374680       -10.1956
  53   1.0000      -0.363534        -9.8923
  54   1.0000      -0.361779        -9.8445
  55   1.0000      -0.353827        -9.6281
  56   1.0000      -0.349252        -9.5036
  57   1.0000      -0.347269        -9.4497
  58   1.0000      -0.333614        -9.0781
  59   1.0000      -0.330677        -8.9982
  60   1.0000      -0.327853        -8.9213
  61   1.0000      -0.325700        -8.8628
  62   1.0000      -0.323600        -8.8056
  63   1.0000      -0.322576        -8.7778
  64   1.0000      -0.321154        -8.7390
  65   1.0000      -0.313034        -8.5181
  66   1.0000      -0.298424        -8.1205
  67   1.0000      -0.270286        -7.3548
  68   1.0000      -0.240811        -6.5528
  69   1.0000      -0.222516        -6.0550
  70   1.0000      -0.180799        -4.9198
  71   0.0000      -0.029963        -0.8153
  72   0.0000       0.002611         0.0710
  73   0.0000       0.049780         1.3546
  74   0.0000       0.062018         1.6876
  75   0.0000       0.064694         1.7604

                 SPIN DOWN ORBITALS
  NO   OCC          E(Eh)            E(eV)
   0   1.0000     -10.205267      -277.6994
   1   1.0000     -10.195729      -277.4399
   2   1.0000     -10.192116      -277.3416
   3   1.0000     -10.187637      -277.2197
   4   1.0000     -10.186838      -277.1980
   5   1.0000     -10.186375      -277.1854
   6   1.0000     -10.185078      -277.1501
   7   1.0000     -10.184061      -277.1224
   8   1.0000     -10.183618      -277.1103
   9   1.0000     -10.183460      -277.1060
  10   1.0000     -10.182060      -277.0679
  11   1.0000     -10.181660      -277.0571
  12   1.0000     -10.181371      -277.0492
  13   1.0000     -10.181369      -277.0491
  14   1.0000     -10.180868      -277.0355
  15   1.0000     -10.179014      -276.9851
  16   1.0000     -10.175678      -276.8943
  17   1.0000     -10.173820      -276.8437
  18   1.0000     -10.167305      -276.6664
  19   1.0000      -0.863607       -23.4999
  20   1.0000      -0.811278       -22.0760
  21   1.0000      -0.797518       -21.7016
  22   1.0000      -0.783329       -21.3155
  23   1.0000      -0.776451       -21.1283
  24   1.0000      -0.756973       -20.5983
  25   1.0000      -0.727227       -19.7889
  26   1.0000      -0.721262       -19.6265
  27   1.0000      -0.701703       -19.0943
  28   1.0000      -0.671620       -18.2757
  29   1.0000      -0.638084       -17.3631
  30   1.0000      -0.617438       -16.8014
  31   1.0000      -0.607085       -16.5196
  32   1.0000      -0.583285       -15.8720
  33   1.0000      -0.576746       -15.6940
  34   1.0000      -0.559695       -15.2301
  35   1.0000      -0.546089       -14.8598
  36   1.0000      -0.524856       -14.2821
  37   1.0000      -0.492943       -13.4137
  38   1.0000      -0.470316       -12.7979
  39   1.0000      -0.468153       -12.7391
  40   1.0000      -0.463832       -12.6215
  41   1.0000      -0.459533       -12.5045
  42   1.0000      -0.452054       -12.3010
  43   1.0000      -0.427818       -11.6415
  44   1.0000      -0.425333       -11.5739
  45   1.0000      -0.421684       -11.4746
  46   1.0000      -0.418897       -11.3988
  47   1.0000      -0.412698       -11.2301
  48   1.0000      -0.403288       -10.9740
  49   1.0000      -0.399493       -10.8708
  50   1.0000      -0.381683       -10.3861
  51   1.0000      -0.376514       -10.2455
  52   1.0000      -0.373936       -10.1753
  53   1.0000      -0.362635        -9.8678
  54   1.0000      -0.360166        -9.8006
  55   1.0000      -0.352933        -9.6038
  56   1.0000      -0.347762        -9.4631
  57   1.0000      -0.345847        -9.4110
  58   1.0000      -0.332594        -9.0503
  59   1.0000      -0.328648        -8.9430
  60   1.0000      -0.326425        -8.8825
  61   1.0000      -0.324929        -8.8418
  62   1.0000      -0.323307        -8.7976
  63   1.0000      -0.321864        -8.7584
  64   1.0000      -0.319774        -8.7015
  65   1.0000      -0.310487        -8.4488
  66   1.0000      -0.298388        -8.1195
  67   1.0000      -0.270280        -7.3547
  68   1.0000      -0.240756        -6.5513
  69   1.0000      -0.222452        -6.0532
  70   0.0000      -0.036255        -0.9865
  71   0.0000      -0.029741        -0.8093
  72   0.0000       0.002715         0.0739
  73   0.0000       0.049828         1.3559
  74   0.0000       0.062028         1.6879

MULLIKEN ATOMIC CHARGES AND SPIN POPULATIONS
--------------------------------------------
   0 C :    0.620959   -0.000088
   1 C :    0.029513   -0.000225
   2 C :   -0.026486    0.000359
   3 C :    0.030228   -0.000204
   4 C :   -0.059374    0.000411
   5 C :   -0.072625   -0.000370
   6 C :    0.023120    0.000413
   7 H :   -0.055528    0.000009
   8 H :   -0.044233   -0.000017
   9 C :    0.034180   -0.000029
  10 H :    0.023429    0.000015
  11 H :    0.025696    0.000015
  12 C :   -0.039078    0.000001
  13 H :    0.015612   -0.000000
  14 H :    0.017830    0.000001
  15 C :   -0.024729    0.000000
  16 H :    0.004808    0.000000
  17 H :    0.004822    0.000000
  18 C :    0.001739   -0.000000
  19 H :    0.017110    0.000000
  20 H :    0.017405    0.000000
  21 C :    0.045700    0.001114
  22 H :    0.030797    0.000159
  23 H :    0.030277    0.000261
  24 C :   -0.041452    0.008367
  25 H :    0.016640   -0.000917
  26 H :    0.018190    0.002830
  27 C :    0.067321   -0.064739
  28 H :    0.006413    0.018383
  29 H :    0.014034    0.058932
  30 C :   -0.113217    0.990122
  31 H :   -0.017944   -0.039627
  32 C :    0.040779   -0.064710
  33 H :    0.012963    0.059435
  34 H :    0.003974    0.017079
  35 C :   -0.044537    0.009274
  36 H :    0.007428   -0.001023
  37 H :    0.008268    0.003036
  38 C :   -0.002322    0.001480
  39 H :    0.016135    0.000148
  40 H :    0.015937    0.000208
  41 C :   -0.595788    0.000121
  42 H :   -0.032018   -0.000006
  43 H :    0.012317   -0.000000
  44 H :    0.011835   -0.000228
  45 H :   -0.056129    0.000007
Sum of atomic charges         :   -0.0000000

LOEWDIN ATOMIC CHARGES AND SPIN POPULATIONS
-------------------------------------------
   0 C :   -0.001116   -0.000024
   1 C :   -0.018251   -0.000134
   2 C :   -0.027302    0.000269
   3 C :   -0.005854   -0.000113
   4 C :   -0.056870    0.000291
   5 C :   -0.005972   -0.000193
   6 C :   -0.029093    0.000314
   7 H :    0.027523    0.000001
   8 H :    0.025897    0.000013
   9 C :   -0.035689    0.000002
  10 H :    0.034518    0.000012
  11 H :    0.035320    0.000012
  12 C :   -0.044013    0.000000
  13 H :    0.024843   -0.000000
  14 H :    0.024705    0.000000
  15 C :   -0.047554    0.000000
  16 H :    0.023497    0.000000
  17 H :    0.023473    0.000000
  18 C :   -0.067412   -0.000000
  19 H :    0.025283    0.000000
  20 H :    0.025356    0.000000
  21 C :   -0.035419    0.000869
  22 H :    0.038963    0.000191
  23 H :    0.038345    0.000618
  24 C :   -0.039608    0.007460
  25 H :    0.024318   -0.000296
  26 H :    0.024294    0.001734
  27 C :   -0.057005    0.009485
  28 H :    0.028584    0.014427
  29 H :    0.030870    0.047144
  30 C :   -0.010155    0.830034
  31 H :    0.006244    0.006033
  32 C :   -0.060959    0.009281
  33 H :    0.029789    0.047520
  34 H :    0.027229    0.013365
  35 C :   -0.046843    0.008442
  36 H :    0.023709   -0.000333
  37 H :    0.023548    0.001936
  38 C :   -0.068703    0.000946
  39 H :    0.024908    0.000183
  40 H :    0.024517    0.000474
  41 C :   -0.057487    0.000103
  42 H :    0.021319    0.000000
  43 H :    0.027300   -0.000000
  44 H :    0.027069   -0.000064
  45 H :    0.023885   -0.000001

  Mayer bond orders larger than 0.100000
B(  0-C ,  4-C ) :   0.9075 B(  0-C , 41-C ) :   2.1395 B(  1-C ,  2-C ) :   1.4220
B(  1-C ,  6-C ) :   1.4307 B(  1-C , 45-H ) :   0.9332 B(  2-C ,  3-C ) :   1.4263
B(  2-C ,  9-C ) :   1.0451 B(  3-C ,  4-C ) :   1.3926 B(  3-C ,  7-H ) :   0.9277
B(  4-C ,  5-C ) :   1.4096 B(  5-C ,  6-C ) :   1.4417 B(  5-C , 21-C ) :   1.0881
B(  6-C ,  8-H ) :   0.9185 B(  9-C , 10-H ) :   0.9148 B(  9-C , 11-H ) :   0.9135
B(  9-C , 12-C ) :   1.1037 B( 12-C , 13-H ) :   0.9320 B( 12-C , 14-H ) :   0.9295
B( 12-C , 15-C ) :   1.0751 B( 15-C , 16-H ) :   0.9414 B( 15-C , 17-H ) :   0.9413
B( 15-C , 18-C ) :   1.1057 B( 18-C , 19-H ) :   0.9665 B( 18-C , 20-H ) :   0.9666
B( 18-C , 43-H ) :   0.9621 B( 21-C , 22-H ) :   0.8984 B( 21-C , 23-H ) :   0.8982
B( 21-C , 24-C ) :   1.0997 B( 24-C , 25-H ) :   0.9286 B( 24-C , 26-H ) :   0.9311
B( 24-C , 27-C ) :   1.0731 B( 27-C , 28-H ) :   0.9243 B( 27-C , 29-H ) :   0.9113
B( 27-C , 30-C ) :   1.0719 B( 30-C , 31-H ) :   0.9586 B( 30-C , 32-C ) :   1.0801
B( 32-C , 33-H ) :   0.9156 B( 32-C , 34-H ) :   0.9283 B( 32-C , 35-C ) :   1.0709
B( 35-C , 36-H ) :   0.9445 B( 35-C , 37-H ) :   0.9474 B( 35-C , 38-C ) :   1.1047
B( 38-C , 39-H ) :   0.9667 B( 38-C , 40-H ) :   0.9664 B( 38-C , 44-H ) :   0.9628
B( 41-C , 42-H ) :   1.1172

FINAL SINGLE POINT ENERGY      -739.696000295040

DIPOLE MOMENT
-------------
                                X             Y             Z
Electronic contribution:      4.21582     -11.00165      -0.14578
Nuclear contribution   :     -4.42748      11.00334       0.09892
                        -----------------------------------------
Total Dipole Moment    :     -0.21166       0.00169      -0.04687
                        -----------------------------------------
Magnitude (a.u.)       :      0.21679
Magnitude (Debye)      :      0.55104

Rotational constants in cm-1:     0.034344     0.002975     0.002760
Rotational constants in MHz :  1029.618259    89.197423    82.731260

                             ****ORCA TERMINATED NORMALLY****
TOTAL RUN TIME: 0 days 0 hours 2 minutes 49 seconds 468 msec
