                         Program Version 5.0.4 -  RELEASE  -
|  1> ! B3LYP cc-pVDZ OPT
|  2> %pal nprocs 16 end
|  3> *XYZFile 0 2 model.xyz
|  4>
|  5>                          ****END OF INPUT****
 Total Charge           Charge          ....    0
 Multiplicity           Mult            ....    2
 Number of Electrons    NEL             ....  141
FINAL SINGLE POINT ENERGY      -739.684500994945
FINAL SINGLE POINT ENERGY      -739.690789288276
FINAL SINGLE POINT ENERGY      -739.693928848961
FINAL SINGLE POINT ENERGY      -739.695280488120
FINAL SINGLE POINT ENERGY      -739.695805792444
FINAL SINGLE POINT ENERGY      -739.695960614588
FINAL SINGLE POINT ENERGY      -739.695985232593
FINAL SINGLE POINT ENERGY      -739.695991571752
FINAL SINGLE POINT ENERGY      -739.695996258747
                    ***********************HURRAY********************

CARTESIAN COORDINATES (ANGSTROEM)
---------------------------------
  C      4.303993   -0.099044   -0.019986
  C      0.095379    0.041847   -0.250332
  C      0.727206   -1.205028   -0.115214
  C      2.122929   -1.212411   -0.043556
  C      2.874308   -0.020154   -0.101380
  C      2.228091    1.234157   -0.236580
  C      0.828539    1.228178   -0.309060
  H      2.668303   -2.150773    0.059972
  H      0.289670    2.170928   -0.414345
  C     -0.115666   -2.468406   -0.049589
  H     -0.784199   -2.484013   -0.930720
  H     -0.791676   -2.389160    0.822893
  C      0.636247   -3.799827    0.026362
  H      1.309912   -3.896981   -0.845049
  H      1.286422   -3.811728    0.920477
  C     -0.301843   -5.011708    0.074983
  H     -0.977280   -4.914794    0.945461
  H     -0.955453   -5.002515   -0.817199
  C      0.442407   -6.347212    0.151027
  H      1.079450   -6.399990    1.050835
  H      1.097598   -6.491215   -0.725436
  C      3.053158    2.505621   -0.293993
  H      3.669351    2.559915    0.622764
  H      3.788282    2.406081   -1.113865
  C      2.286495    3.819607   -0.461501
  H      1.683582    3.789097   -1.387366
  H      1.571864    3.952366    0.370090
  C      3.218416    5.039823   -0.514112
  H      3.844016    5.071239    0.400108
  H      3.946453    4.894522   -1.346232
  C      2.505214    6.343014   -0.678289
  H      1.561879    6.348293   -1.239679
  C      3.174852    7.653563   -0.417869
  H      3.874748    7.897348   -1.251684
  H      3.824892    7.567710    0.475950
  C      2.204128    8.830751   -0.238803
  H      1.570192    8.913846   -1.141092
  H      1.516816    8.605008    0.596374
  C      2.912091   10.163176    0.016523
  H      3.531850   10.118821    0.928896
  H      3.579244   10.430027   -0.821537
  C      5.515728   -0.175457    0.048577
  H      6.584104   -0.243307    0.110603
  H     -0.257066   -7.198161    0.187741
  H      2.190725   10.986727    0.143833
  H     -0.996407    0.085398   -0.311066

 Multiplicity           Mult            ....    2
 Number of Electrons    NEL             ....  141
 Basis Dimension        Dim             ....  401

ORBITAL ENERGIES
----------------
                 SPIN UP ORBITALS
  NO   OCC          E(Eh)            E(eV)
   0   1.0000     -10.205277      -277.6997
   1   1.0000     -10.195723      -277.4397
   2   1.0000     -10.192110      -277.3414
   3   1.0000     -10.187634      -277.2196
   4   1.0000     -10.186840      -277.1980
   5   1.0000     -10.186365      -277.1851
   6   1.0000     -10.185073      -277.1499
   7   1.0000     -10.184060      -277.1224
   8   1.0000     -10.183471      -277.1063
   9   1.0000     -10.182719      -277.0859
  10   1.0000     -10.182061      -277.0680
  11   1.0000     -10.181379      -277.0494
  12   1.0000     -10.181369      -277.0491
  13   1.0000     -10.181156      -277.0434
  14   1.0000     -10.181113      -277.0422
  15   1.0000     -10.180732      -277.0318
  16   1.0000     -10.179294      -276.9927
  17   1.0000     -10.175679      -276.8943
  18   1.0000     -10.173830      -276.8440
  19   1.0000      -0.863632       -23.5006
  20   1.0000      -0.813179       -22.1277
  21   1.0000      -0.803397       -21.8615
  22   1.0000      -0.784572       -21.3493
  23   1.0000      -0.776585       -21.1319
  24   1.0000      -0.758556       -20.6413
  25   1.0000      -0.731680       -19.9100
  26   1.0000      -0.721270       -19.6268
  27   1.0000      -0.705026       -19.1847
  28   1.0000      -0.672369       -18.2961
  29   1.0000      -0.639179       -17.3929
  30   1.0000      -0.618004       -16.8167
  31   1.0000      -0.609294       -16.5797
  32   1.0000      -0.584554       -15.9065
  33   1.0000      -0.577381       -15.7113
  34   1.0000      -0.561605       -15.2821
  35   1.0000      -0.559913       -15.2360
  36   1.0000      -0.525163       -14.2904
  37   1.0000      -0.493270       -13.4226
  38   1.0000      -0.470389       -12.7999
  39   1.0000      -0.470124       -12.7927
  40   1.0000      -0.467125       -12.7111
  41   1.0000      -0.459839       -12.5129
  42   1.0000      -0.453961       -12.3529
  43   1.0000      -0.430247       -11.7076
  44   1.0000      -0.426978       -11.6187
  45   1.0000      -0.422258       -11.4902
  46   1.0000      -0.419057       -11.4031
  47   1.0000      -0.412984       -11.2379
  48   1.0000      -0.406603       -11.0642
  49   1.0000      -0.405034       -11.0215
  50   1.0000      -0.383817       -10.4442
  51   1.0000      -0.379710       -10.3324
  52   1.0000      -0.374674       -10.1954
  53   1.0000      -0.363549        -9.8927
  54   1.0000      -0.361754        -9.8438
  55   1.0000      -0.353814        -9.6278
  56   1.0000      -0.349262        -9.5039
  57   1.0000      -0.347259        -9.4494
  58   1.0000      -0.333609        -9.0780
  59   1.0000      -0.330675        -8.9981
  60   1.0000      -0.327832        -8.9208
  61   1.0000      -0.325700        -8.8628
  62   1.0000      -0.323605        -8.8057
  63   1.0000      -0.322588        -8.7781
  64   1.0000      -0.321163        -8.7393
  65   1.0000      -0.313034        -8.5181
  66   1.0000      -0.298430        -8.1207
  67   1.0000      -0.270288        -7.3549
  68   1.0000      -0.240808        -6.5527
  69   1.0000      -0.222515        -6.0549
  70   1.0000      -0.180765        -4.9189
  71   0.0000      -0.029972        -0.8156
  72   0.0000       0.002626         0.0715
  73   0.0000       0.049774         1.3544
  74   0.0000       0.062018         1.6876
  75   0.0000       0.064693         1.7604

                 SPIN DOWN ORBITALS
  NO   OCC          E(Eh)            E(eV)
   0   1.0000     -10.205270      -277.6995
   1   1.0000     -10.195732      -277.4400
   2   1.0000     -10.192104      -277.3413
   3   1.0000     -10.187634      -277.2196
   4   1.0000     -10.186842      -277.1981
   5   1.0000     -10.186367      -277.1851
   6   1.0000     -10.185076      -277.1500
   7   1.0000     -10.184054      -277.1222
   8   1.0000     -10.183619      -277.1104
   9   1.0000     -10.183456      -277.1059
  10   1.0000     -10.182061      -277.0680
  11   1.0000     -10.181667      -277.0572
  12   1.0000     -10.181378      -277.0494
  13   1.0000     -10.181369      -277.0491
  14   1.0000     -10.180864      -277.0354
  15   1.0000     -10.179017      -276.9851
  16   1.0000     -10.175679      -276.8943
  17   1.0000     -10.173819      -276.8437
  18   1.0000     -10.167283      -276.6658
  19   1.0000      -0.863609       -23.5000
  20   1.0000      -0.811274       -22.0759
  21   1.0000      -0.797508       -21.7013
  22   1.0000      -0.783326       -21.3154
  23   1.0000      -0.776457       -21.1285
  24   1.0000      -0.756970       -20.5982
  25   1.0000      -0.727217       -19.7886
  26   1.0000      -0.721267       -19.6267
  27   1.0000      -0.701692       -19.0940
  28   1.0000      -0.671629       -18.2760
  29   1.0000      -0.638082       -17.3631
  30   1.0000      -0.617445       -16.8015
  31   1.0000      -0.607074       -16.5193
  32   1.0000      -0.583287       -15.8720
  33   1.0000      -0.576749       -15.6941
  34   1.0000      -0.559689       -15.2299
  35   1.0000      -0.546054       -14.8589
  36   1.0000      -0.524859       -14.2821
  37   1.0000      -0.492945       -13.4137
  38   1.0000      -0.470312       -12.7978
  39   1.0000      -0.468176       -12.7397
  40   1.0000      -0.463842       -12.6218
  41   1.0000      -0.459521       -12.5042
  42   1.0000      -0.452060       -12.3012
  43   1.0000      -0.427807       -11.6412
  44   1.0000      -0.425323       -11.5736
  45   1.0000      -0.421683       -11.4746
  46   1.0000      -0.418889       -11.3985
  47   1.0000      -0.412696       -11.2300
  48   1.0000      -0.403278       -10.9737
  49   1.0000      -0.399507       -10.8711
  50   1.0000      -0.381677       -10.3860
  51   1.0000      -0.376531       -10.2459
  52   1.0000      -0.373928       -10.1751
  53   1.0000      -0.362649        -9.8682
  54   1.0000      -0.360145        -9.8000
  55   1.0000      -0.352917        -9.6033
  56   1.0000      -0.347775        -9.4634
  57   1.0000      -0.345838        -9.4107
  58   1.0000      -0.332591        -9.0503
  59   1.0000      -0.328649        -8.9430
  60   1.0000      -0.326413        -8.8822
  61   1.0000      -0.324913        -8.8413
  62   1.0000      -0.323307        -8.7976
  63   1.0000      -0.321870        -8.7585
  64   1.0000      -0.319797        -8.7021
  65   1.0000      -0.310484        -8.4487
  66   1.0000      -0.298394        -8.1197
  67   1.0000      -0.270282        -7.3547
  68   1.0000      -0.240753        -6.5512
  69   1.0000      -0.222451        -6.0532
  70   0.0000      -0.036213        -0.9854
  71   0.0000      -0.029750        -0.8095
  72   0.0000       0.002729         0.0743
  73   0.0000       0.049822         1.3557
  74   0.0000       0.062028         1.6879

MULLIKEN ATOMIC CHARGES AND SPIN POPULATIONS
--------------------------------------------
   0 C :    0.621030   -0.000087
   1 C :    0.029430   -0.000223
   2 C :   -0.026523    0.000356
   3 C :    0.030215   -0.000202
   4 C :   -0.059359    0.000409
   5 C :   -0.072604   -0.000364
   6 C :    0.023179    0.000410
   7 H :   -0.055539    0.000009
   8 H :   -0.044223   -0.000017
   9 C :    0.034121   -0.000028
  10 H :    0.023438    0.000015
  11 H :    0.025670    0.000015
  12 C :   -0.039039    0.000001
  13 H :    0.015623   -0.000000
  14 H :    0.017823    0.000001
  15 C :   -0.024748    0.000000
  16 H :    0.004809    0.000000
  17 H :    0.004822    0.000000
  18 C :    0.001750   -0.000000
  19 H :    0.017110    0.000000
  20 H :    0.017404    0.000000
  21 C :    0.045742    0.001131
  22 H :    0.030797    0.000158
  23 H :    0.030263    0.000261
  24 C :   -0.041549    0.008433
  25 H :    0.016619   -0.000923
  26 H :    0.018192    0.002838
  27 C :    0.067587   -0.064753
  28 H :    0.006370    0.018301
  29 H :    0.014087    0.058857
  30 C :   -0.113530    0.990301
  31 H :   -0.017971   -0.039659
  32 C :    0.040987   -0.064726
  33 H :    0.012997    0.059360
  34 H :    0.003984    0.017077
  35 C :   -0.044631    0.009297
  36 H :    0.007444   -0.001024
  37 H :    0.008256    0.003040
  38 C :   -0.002313    0.001486
  39 H :    0.016132    0.000149
  40 H :    0.015936    0.000207
  41 C :   -0.595813    0.000120
  42 H :   -0.032014   -0.000006
  43 H :    0.012319   -0.000000
  44 H :    0.011838   -0.000227
  45 H :   -0.056120    0.000007
Sum of atomic charges         :   -0.0000000

LOEWDIN ATOMIC CHARGES AND SPIN POPULATIONS
-------------------------------------------
   0 C :   -0.001117   -0.000024
   1 C :   -0.018259   -0.000133
   2 C :   -0.027300    0.000267
   3 C :   -0.005861   -0.000112
   4 C :   -0.056872    0.000291
   5 C :   -0.005970   -0.000189
   6 C :   -0.029109    0.000313
   7 H :    0.027520    0.000001
   8 H :    0.025904    0.000013
   9 C :   -0.035704    0.000002
  10 H :    0.034524    0.000011
  11 H :    0.035315    0.000012
  12 C :   -0.044014    0.000000
  13 H :    0.024843   -0.000000
  14 H :    0.024707    0.000000
  15 C :   -0.047551    0.000000
  16 H :    0.023497    0.000000
  17 H :    0.023473    0.000000
  18 C :   -0.067413   -0.000000
  19 H :    0.025285    0.000000
  20 H :    0.025356    0.000000
  21 C :   -0.035420    0.000880
  22 H :    0.038967    0.000191
  23 H :    0.038334    0.000617
  24 C :   -0.039603    0.007531
  25 H :    0.024321   -0.000297
  26 H :    0.024287    0.001741
  27 C :   -0.056976    0.009480
  28 H :    0.028570    0.014361
  29 H :    0.030867    0.047093
  30 C :   -0.010156    0.830110
  31 H :    0.006234    0.006015
  32 C :   -0.060944    0.009278
  33 H :    0.029787    0.047466
  34 H :    0.027229    0.013363
  35 C :   -0.046838    0.008468
  36 H :    0.023712   -0.000333
  37 H :    0.023542    0.001939
  38 C :   -0.068703    0.000950
  39 H :    0.024904    0.000184
  40 H :    0.024517    0.000473
  41 C :   -0.057472    0.000103
  42 H :    0.021321    0.000000
  43 H :    0.027302   -0.000000
  44 H :    0.027064   -0.000063
  45 H :    0.023898   -0.000001

  Mayer bond orders larger than 0.100000
B(  0-C ,  4-C ) :   0.9075 B(  0-C , 41-C ) :   2.1394 B(  1-C ,  2-C ) :   1.4220
B(  1-C ,  6-C ) :   1.4307 B(  1-C , 45-H ) :   0.9332 B(  2-C ,  3-C ) :   1.4264
B(  2-C ,  9-C ) :   1.0450 B(  3-C ,  4-C ) :   1.3926 B(  3-C ,  7-H ) :   0.9277
B(  4-C ,  5-C ) :   1.4096 B(  5-C ,  6-C ) :   1.4417 B(  5-C , 21-C ) :   1.0881
B(  6-C ,  8-H ) :   0.9185 B(  9-C , 10-H ) :   0.9148 B(  9-C , 11-H ) :   0.9135
B(  9-C , 12-C ) :   1.1037 B( 12-C , 13-H ) :   0.9320 B( 12-C , 14-H ) :   0.9295
B( 12-C , 15-C ) :   1.0751 B( 15-C , 16-H ) :   0.9414 B( 15-C , 17-H ) :   0.9413
B( 15-C , 18-C ) :   1.1057 B( 18-C , 19-H ) :   0.9665 B( 18-C , 20-H ) :   0.9666
B( 18-C , 43-H ) :   0.9621 B( 21-C , 22-H ) :   0.8984 B( 21-C , 23-H ) :   0.8982
B( 21-C , 24-C ) :   1.0997 B( 24-C , 25-H ) :   0.9287 B( 24-C , 26-H ) :   0.9311
B( 24-C , 27-C ) :   1.0731 B( 27-C , 28-H ) :   0.9243 B( 27-C , 29-H ) :   0.9113
B( 27-C , 30-C ) :   1.0718 B( 30-C , 31-H ) :   0.9586 B( 30-C , 32-C ) :   1.0800
B( 32-C , 33-H ) :   0.9156 B( 32-C , 34-H ) :   0.9283 B( 32-C , 35-C ) :   1.0710
B( 35-C , 36-H ) :   0.9445 B( 35-C , 37-H ) :   0.9474 B( 35-C , 38-C ) :   1.1047
B( 38-C , 39-H ) :   0.9667 B( 38-C , 40-H ) :   0.9664 B( 38-C , 44-H ) :   0.9628
B( 41-C , 42-H ) :   1.1172

FINAL SINGLE POINT ENERGY      -739.695999053792

DIPOLE MOMENT
-------------
                                X             Y             Z
Electronic contribution:      4.23406     -11.00195      -0.16398
Nuclear contribution   :     -4.44592      11.00378       0.11775
                        -----------------------------------------
Total Dipole Moment    :     -0.21186       0.00183      -0.04623
                        -----------------------------------------
Magnitude (a.u.)       :      0.21685
Magnitude (Debye)      :      0.55120

Rotational constants in cm-1:     0.034304     0.002976     0.002760
Rotational constants in MHz :  1028.401036    89.219646    82.746430

                             ****ORCA TERMINATED NORMALLY****
TOTAL RUN TIME: 0 days 0 hours 14 minutes 20 seconds 75 msec
