                         Program Version 5.0.4 -  RELEASE  -
|  1> ! B3LYP cc-pVDZ AUTOAUX
|  2> %pal nprocs 16 end
|  3> *XYZFile 0 2 opt_cc-pVDZ.xyz
|  4> %EPRNMR
|  5>         GTENSOR   TRUE
|  6>         NUCLEI    = ALL H {SHIFT, AISO, ADIP, AORB}
|  7>         ORI       CenterOfElCharge
|  8> END
|  9>
| 10>                          ****END OF INPUT****

CARTESIAN COORDINATES (ANGSTROEM)
---------------------------------
  C      3.991784   -0.048435    0.056346
  C      2.775712    0.001154    0.039648
  C     -2.904921    0.001529   -0.021694
  C      1.348481    0.036063    0.023781
  C      0.635152    1.290201    0.013521
  C     -0.786150    1.210014   -0.001501
  C     -1.471087   -0.006069   -0.006317
  C     -0.754959   -1.242857    0.003885
  C      0.640797   -1.177975    0.018518
  H     -1.371712    2.129541   -0.009530
  H      1.223674   -2.098813    0.026483
  C      1.310504    2.530996    0.018452
  H      2.403361    2.505271    0.030469
  C      0.640754    3.872473    0.008531
  H     -0.020275    3.959854   -0.878575
  H     -0.043331    3.961474    0.877793
  C      1.626405    5.048189    0.020362
  H      2.274910    4.965134    0.911543
  H      2.297355    4.964108   -0.853963
  C      0.933927    6.412245    0.010752
  H      0.280780    6.536667    0.891827
  H      0.303418    6.535595   -0.886820
  C     -1.517089   -2.551625   -0.001122
  H     -2.203424   -2.555125    0.866315
  H     -2.187900   -2.557491   -0.880574
  C     -0.686255   -3.837418    0.007984
  H     -0.014409   -3.856931   -0.869895
  H     -0.031140   -3.855437    0.898451
  C     -1.555636   -5.100694    0.001104
  H     -2.229939   -5.082944    0.877396
  H     -2.214140   -5.084251   -0.887149
  C     -0.737690   -6.394490    0.009386
  H     -0.094861   -6.456485    0.904485
  H     -0.079170   -6.457885   -0.874119
  C     -4.120618    0.011094   -0.036179
  H      5.062828   -0.098171    0.076211
  H     -5.192896    0.025363   -0.051172
  H      1.665950    7.235757    0.019557
  H     -1.388424   -7.283966    0.004373

 Total Charge           Charge          ....    0
 Multiplicity           Mult            ....    2
 Number of Electrons    NEL             ....  129
 Basis Dimension        Dim             ....  357

ORBITAL ENERGIES
----------------
                 SPIN UP ORBITALS
  NO   OCC          E(Eh)            E(eV)
   0   1.0000     -10.215349      -277.9738
   1   1.0000     -10.213465      -277.9225
   2   1.0000     -10.204311      -277.6734
   3   1.0000     -10.200094      -277.5587
   4   1.0000     -10.196671      -277.4655
   5   1.0000     -10.193558      -277.3808
   6   1.0000     -10.192858      -277.3618
   7   1.0000     -10.191812      -277.3333
   8   1.0000     -10.190743      -277.3042
   9   1.0000     -10.188924      -277.2547
  10   1.0000     -10.187511      -277.2163
  11   1.0000     -10.187310      -277.2108
  12   1.0000     -10.186741      -277.1953
  13   1.0000     -10.184316      -277.1293
  14   1.0000     -10.182195      -277.0716
  15   1.0000     -10.181842      -277.0620
  16   1.0000     -10.177410      -276.9414
  17   1.0000     -10.175662      -276.8938
  18   1.0000      -0.875647       -23.8276
  19   1.0000      -0.821143       -22.3444
  20   1.0000      -0.798404       -21.7257
  21   1.0000      -0.796398       -21.6711
  22   1.0000      -0.769045       -20.9268
  23   1.0000      -0.752762       -20.4837
  24   1.0000      -0.731756       -19.9121
  25   1.0000      -0.721393       -19.6301
  26   1.0000      -0.698772       -19.0146
  27   1.0000      -0.657595       -17.8941
  28   1.0000      -0.640119       -17.4185
  29   1.0000      -0.618006       -16.8168
  30   1.0000      -0.594655       -16.1814
  31   1.0000      -0.580862       -15.8061
  32   1.0000      -0.563318       -15.3287
  33   1.0000      -0.542220       -14.7546
  34   1.0000      -0.524586       -14.2747
  35   1.0000      -0.499445       -13.5906
  36   1.0000      -0.486894       -13.2491
  37   1.0000      -0.478511       -13.0209
  38   1.0000      -0.471042       -12.8177
  39   1.0000      -0.462812       -12.5938
  40   1.0000      -0.434254       -11.8166
  41   1.0000      -0.430641       -11.7183
  42   1.0000      -0.426746       -11.6123
  43   1.0000      -0.422417       -11.4946
  44   1.0000      -0.412558       -11.2263
  45   1.0000      -0.399071       -10.8593
  46   1.0000      -0.398526       -10.8444
  47   1.0000      -0.381064       -10.3693
  48   1.0000      -0.379745       -10.3334
  49   1.0000      -0.365970        -9.9586
  50   1.0000      -0.358140        -9.7455
  51   1.0000      -0.354921        -9.6579
  52   1.0000      -0.341082        -9.2813
  53   1.0000      -0.333270        -9.0687
  54   1.0000      -0.331655        -9.0248
  55   1.0000      -0.331042        -9.0081
  56   1.0000      -0.328159        -8.9297
  57   1.0000      -0.325102        -8.8465
  58   1.0000      -0.321422        -8.7463
  59   1.0000      -0.285589        -7.7713
  60   1.0000      -0.276498        -7.5239
  61   1.0000      -0.274862        -7.4794
  62   1.0000      -0.271302        -7.3825
  63   1.0000      -0.231115        -6.2890
  64   1.0000      -0.174656        -4.7526
  65   0.0000      -0.048347        -1.3156
  66   0.0000       0.010913         0.2970
  67   0.0000       0.040506         1.1022
  68   0.0000       0.049415         1.3446
  69   0.0000       0.052835         1.4377

                 SPIN DOWN ORBITALS
  NO   OCC          E(Eh)            E(eV)
   0   1.0000     -10.215091      -277.9668
   1   1.0000     -10.211924      -277.8806
   2   1.0000     -10.202545      -277.6254
   3   1.0000     -10.200848      -277.5792
   4   1.0000     -10.193580      -277.3814
   5   1.0000     -10.193413      -277.3769
   6   1.0000     -10.192472      -277.3513
   7   1.0000     -10.191503      -277.3249
   8   1.0000     -10.189605      -277.2732
   9   1.0000     -10.187928      -277.2276
  10   1.0000     -10.187716      -277.2218
  11   1.0000     -10.185466      -277.1606
  12   1.0000     -10.184277      -277.1283
  13   1.0000     -10.183542      -277.1083
  14   1.0000     -10.182191      -277.0715
  15   1.0000     -10.181842      -277.0620
  16   1.0000     -10.177418      -276.9416
  17   1.0000     -10.175664      -276.8939
  18   1.0000      -0.872221       -23.7343
  19   1.0000      -0.816070       -22.2064
  20   1.0000      -0.795802       -21.6549
  21   1.0000      -0.794965       -21.6321
  22   1.0000      -0.767001       -20.8712
  23   1.0000      -0.751893       -20.4601
  24   1.0000      -0.727648       -19.8003
  25   1.0000      -0.719929       -19.5903
  26   1.0000      -0.696399       -18.9500
  27   1.0000      -0.654534       -17.8108
  28   1.0000      -0.638241       -17.3674
  29   1.0000      -0.612412       -16.6646
  30   1.0000      -0.593696       -16.1553
  31   1.0000      -0.579290       -15.7633
  32   1.0000      -0.560784       -15.2597
  33   1.0000      -0.540928       -14.7194
  34   1.0000      -0.522041       -14.2054
  35   1.0000      -0.497253       -13.5310
  36   1.0000      -0.485452       -13.2098
  37   1.0000      -0.477132       -12.9834
  38   1.0000      -0.470162       -12.7938
  39   1.0000      -0.459301       -12.4982
  40   1.0000      -0.432172       -11.7600
  41   1.0000      -0.429182       -11.6786
  42   1.0000      -0.425510       -11.5787
  43   1.0000      -0.419704       -11.4207
  44   1.0000      -0.412078       -11.2132
  45   1.0000      -0.397422       -10.8144
  46   1.0000      -0.391220       -10.6456
  47   1.0000      -0.377451       -10.2710
  48   1.0000      -0.377179       -10.2636
  49   1.0000      -0.364798        -9.9267
  50   1.0000      -0.357136        -9.7182
  51   1.0000      -0.351751        -9.5716
  52   1.0000      -0.338778        -9.2186
  53   1.0000      -0.332756        -9.0548
  54   1.0000      -0.330023        -8.9804
  55   1.0000      -0.328641        -8.9428
  56   1.0000      -0.327813        -8.9202
  57   1.0000      -0.324342        -8.8258
  58   1.0000      -0.320686        -8.7263
  59   1.0000      -0.280059        -7.6208
  60   1.0000      -0.276459        -7.5228
  61   1.0000      -0.274206        -7.4615
  62   1.0000      -0.258904        -7.0451
  63   1.0000      -0.223117        -6.0713
  64   0.0000      -0.084269        -2.2931
  65   0.0000      -0.039292        -1.0692
  66   0.0000       0.027004         0.7348
  67   0.0000       0.040906         1.1131
  68   0.0000       0.049719         1.3529

MULLIKEN ATOMIC CHARGES AND SPIN POPULATIONS
--------------------------------------------
   0 C :   -0.600733    0.101811
   1 C :    0.631671   -0.060551
   2 C :    0.624311    0.028987
   3 C :   -0.049195    0.228410
   4 C :    0.081066   -0.167134
   5 C :   -0.012573    0.219591
   6 C :   -0.022386   -0.110451
   7 C :   -0.076778    0.237583
   8 C :    0.025526   -0.118868
   9 H :   -0.048875   -0.009122
  10 H :   -0.049783    0.004319
  11 C :   -0.098562    0.705605
  12 H :   -0.021201   -0.030043
  13 C :    0.032695   -0.048373
  14 H :    0.029583    0.031763
  15 H :    0.029609    0.031642
  16 C :   -0.038823    0.002286
  17 H :    0.013197    0.000472
  18 H :    0.013217    0.000457
  19 C :    0.005404   -0.000180
  20 H :    0.017713    0.000155
  21 H :    0.017731    0.000154
  22 C :    0.042895   -0.018797
  23 H :    0.032216    0.010184
  24 H :    0.032194    0.010129
  25 C :   -0.036522    0.000872
  26 H :    0.016922    0.000184
  27 H :    0.016971    0.000180
  28 C :   -0.024441    0.000023
  29 H :    0.006206    0.000053
  30 H :    0.006194    0.000053
  31 C :    0.002979   -0.000081
  32 H :    0.017346    0.000024
  33 H :    0.017367    0.000024
  34 C :   -0.601397   -0.048969
  35 H :   -0.029748   -0.004109
  36 H :   -0.028596    0.001929
  37 H :    0.013750   -0.000204
  38 H :    0.012854   -0.000005
Sum of atomic charges         :   -0.0000000

LOEWDIN ATOMIC CHARGES AND SPIN POPULATIONS
-------------------------------------------
   0 C :   -0.051231    0.081392
   1 C :   -0.002485   -0.023962
   2 C :   -0.000958    0.013474
   3 C :   -0.040598    0.163171
   4 C :   -0.039691   -0.071114
   5 C :    0.011124    0.165727
   6 C :   -0.053902   -0.060259
   7 C :   -0.004746    0.175760
   8 C :   -0.006848   -0.065147
   9 H :    0.029675    0.000875
  10 H :    0.031128   -0.000466
  11 C :    0.014486    0.580177
  12 H :    0.023274    0.003327
  13 C :   -0.054705    0.005519
  14 H :    0.034679    0.024811
  15 H :    0.034633    0.024706
  16 C :   -0.045841    0.001160
  17 H :    0.025962    0.000300
  18 H :    0.025967    0.000292
  19 C :   -0.067669   -0.000043
  20 H :    0.025638    0.000248
  21 H :    0.025642    0.000248
  22 C :   -0.034971    0.002221
  23 H :    0.039871    0.008016
  24 H :    0.039858    0.007974
  25 C :   -0.043596    0.000159
  26 H :    0.024569    0.000060
  27 H :    0.024568    0.000059
  28 C :   -0.046987    0.000016
  29 H :    0.024196    0.000090
  30 H :    0.024191    0.000090
  31 C :   -0.067619   -0.000039
  32 H :    0.025285    0.000016
  33 H :    0.025287    0.000016
  34 C :   -0.049541   -0.038807
  35 H :    0.022452    0.000126
  36 H :    0.022932   -0.000074
  37 H :    0.028432   -0.000112
  38 H :    0.027537   -0.000007

  Mayer bond orders larger than 0.100000
B(  0-C ,  1-C ) :   2.1009 B(  0-C , 35-H ) :   1.1191 B(  1-C ,  3-C ) :   0.9067
B(  2-C ,  6-C ) :   0.9029 B(  2-C , 34-C ) :   2.1272 B(  3-C ,  4-C ) :   1.2774
B(  3-C ,  8-C ) :   1.3953 B(  4-C ,  5-C ) :   1.2850 B(  4-C , 11-C ) :   1.3682
B(  5-C ,  6-C ) :   1.4405 B(  5-C ,  9-H ) :   0.9198 B(  6-C ,  7-C ) :   1.3426
B(  7-C ,  8-C ) :   1.4094 B(  7-C , 22-C ) :   1.0925 B(  8-C , 10-H ) :   0.9214
B( 11-C , 12-H ) :   0.9028 B( 11-C , 13-C ) :   1.0838 B( 13-C , 14-H ) :   0.9117
B( 13-C , 15-H ) :   0.9117 B( 13-C , 16-C ) :   1.0715 B( 16-C , 17-H ) :   0.9438
B( 16-C , 18-H ) :   0.9438 B( 16-C , 19-C ) :   1.1065 B( 19-C , 20-H ) :   0.9653
B( 19-C , 21-H ) :   0.9653 B( 19-C , 37-H ) :   0.9608 B( 22-C , 23-H ) :   0.8968
B( 22-C , 24-H ) :   0.8968 B( 22-C , 25-C ) :   1.1035 B( 25-C , 26-H ) :   0.9294
B( 25-C , 27-H ) :   0.9293 B( 25-C , 28-C ) :   1.0751 B( 28-C , 29-H ) :   0.9410
B( 28-C , 30-H ) :   0.9410 B( 28-C , 31-C ) :   1.1061 B( 31-C , 32-H ) :   0.9662
B( 31-C , 33-H ) :   0.9662 B( 31-C , 38-H ) :   0.9617 B( 34-C , 36-H ) :   1.1178

FINAL SINGLE POINT ENERGY      -697.967270708979

DIPOLE MOMENT
-------------
                                X             Y             Z
Electronic contribution:      0.61340       2.29011       0.00074
Nuclear contribution   :     -0.70353      -2.24924       0.00006
                        -----------------------------------------
Total Dipole Moment    :     -0.09013       0.04087       0.00080
                        -----------------------------------------
Magnitude (a.u.)       :      0.09896
Magnitude (Debye)      :      0.25154

Rotational constants in cm-1:     0.022570     0.005963     0.004746
Rotational constants in MHz :   676.637009   178.773730   142.287384

CHEMICAL SHIELDING SUMMARY (ppm)  --  Orbital contribution
----------------------------------------------------------

  Nucleus  Element    Isotropic     Anisotropy
  -------  -------  ------------   ------------
      9       H           54.084         47.515
     10       H           58.003         38.865
     12       H           40.656         12.761
     14       H           64.096         14.861
     15       H           64.288         14.763
     17       H           25.571         19.101
     18       H           25.353         19.127
     20       H           15.699         15.247
     21       H           15.503         15.314
     23       H           52.719         30.186
     24       H           52.709         30.140
     26       H           72.424         13.369
     27       H           72.365         13.353
     29       H           22.538         19.943
     30       H           22.584         19.912
     32       H           21.064         14.069
     33       H           21.100         14.078
     35       H          -46.076        -45.846
     36       H          -47.516        -55.627
     37       H          -69.417         16.474
     38       H          -69.433         13.837

                             ****ORCA TERMINATED NORMALLY****
TOTAL RUN TIME: 0 days 0 hours 31 minutes 23 seconds 357 msec
