                         Program Version 5.0.4 -  RELEASE  -
|  1> ! B3LYP cc-pVDZ AUTOAUX
|  2> %pal nprocs 16 end
|  3> *XYZFile 0 2 opt.xyz
|  4> %EPRNMR
|  5>         GTENSOR   TRUE
|  6>         NUCLEI    = ALL H {SHIFT, AISO, ADIP, AORB}
|  7>         ORI       CenterOfElCharge
|  8> END
|  9>
| 10>                          ****END OF INPUT****

CARTESIAN COORDINATES (ANGSTROEM)
---------------------------------
  C      3.991788   -0.049240    0.058108
  C      2.775740    0.000818    0.040924
  C     -2.904926    0.001969   -0.021065
  C      1.348501    0.035970    0.024651
  C      0.635243    1.290110    0.014122
  C     -0.786025    1.210124   -0.000914
  C     -1.471080   -0.005896   -0.005830
  C     -0.755051   -1.242724    0.004473
  C      0.640732   -1.178015    0.019328
  H     -1.371296    2.129824   -0.008865
  H      1.223342   -2.098995    0.027465
  C      1.310813    2.530858    0.018832
  H      2.403663    2.505003    0.030818
  C      0.641084    3.872285    0.008661
  H     -0.020408    3.959192   -0.878174
  H     -0.042671    3.961660    0.878176
  C      1.626345    5.048246    0.019383
  H      2.275422    4.965813    0.910219
  H      2.296697    4.963937   -0.855394
  C      0.933467    6.412041    0.009601
  H      0.280768    6.536675    0.890987
  H      0.302265    6.534793   -0.887575
  C     -1.517430   -2.551443   -0.000599
  H     -2.203439   -2.555198    0.867109
  H     -2.188523   -2.557024   -0.879837
  C     -0.686654   -3.837261    0.007762
  H     -0.015119   -3.856287   -0.870392
  H     -0.031197   -3.855470    0.897992
  C     -1.555555   -5.100742    0.000739
  H     -2.229365   -5.083796    0.877444
  H     -2.214538   -5.084219   -0.887176
  C     -0.737137   -6.394159    0.007906
  H     -0.093627   -6.456407    0.902512
  H     -0.079125   -6.457034   -0.876030
  C     -4.120621    0.011732   -0.035488
  H      5.062776   -0.099657    0.078803
  H     -5.192882    0.026348   -0.050615
  H      1.665288    7.235733    0.017560
  H     -1.387506   -7.283908    0.002941

 Total Charge           Charge          ....    0
 Multiplicity           Mult            ....    2
 Number of Electrons    NEL             ....  129
 Basis Dimension        Dim             ....  357

ORBITAL ENERGIES
----------------
                 SPIN UP ORBITALS
  NO   OCC          E(Eh)            E(eV)
   0   1.0000     -10.215483      -277.9774
   1   1.0000     -10.213413      -277.9211
   2   1.0000     -10.204088      -277.6673
   3   1.0000     -10.200054      -277.5576
   4   1.0000     -10.196592      -277.4634
   5   1.0000     -10.193629      -277.3827
   6   1.0000     -10.192761      -277.3591
   7   1.0000     -10.191727      -277.3310
   8   1.0000     -10.190971      -277.3104
   9   1.0000     -10.188937      -277.2551
  10   1.0000     -10.187470      -277.2152
  11   1.0000     -10.187434      -277.2142
  12   1.0000     -10.186621      -277.1920
  13   1.0000     -10.184336      -277.1299
  14   1.0000     -10.182161      -277.0707
  15   1.0000     -10.181861      -277.0625
  16   1.0000     -10.177436      -276.9421
  17   1.0000     -10.175686      -276.8945
  18   1.0000      -0.875616       -23.8267
  19   1.0000      -0.821125       -22.3440
  20   1.0000      -0.798437       -21.7266
  21   1.0000      -0.796390       -21.6709
  22   1.0000      -0.769041       -20.9267
  23   1.0000      -0.752779       -20.4842
  24   1.0000      -0.731756       -19.9121
  25   1.0000      -0.721403       -19.6304
  26   1.0000      -0.698767       -19.0144
  27   1.0000      -0.657578       -17.8936
  28   1.0000      -0.640115       -17.4184
  29   1.0000      -0.617999       -16.8166
  30   1.0000      -0.594659       -16.1815
  31   1.0000      -0.580849       -15.8057
  32   1.0000      -0.563297       -15.3281
  33   1.0000      -0.542226       -14.7547
  34   1.0000      -0.524586       -14.2747
  35   1.0000      -0.499449       -13.5907
  36   1.0000      -0.486884       -13.2488
  37   1.0000      -0.478510       -13.0209
  38   1.0000      -0.471026       -12.8173
  39   1.0000      -0.462831       -12.5943
  40   1.0000      -0.434235       -11.8161
  41   1.0000      -0.430619       -11.7177
  42   1.0000      -0.426763       -11.6128
  43   1.0000      -0.422393       -11.4939
  44   1.0000      -0.412561       -11.2264
  45   1.0000      -0.399074       -10.8593
  46   1.0000      -0.398515       -10.8442
  47   1.0000      -0.381050       -10.3689
  48   1.0000      -0.379746       -10.3334
  49   1.0000      -0.365968        -9.9585
  50   1.0000      -0.358139        -9.7455
  51   1.0000      -0.354909        -9.6576
  52   1.0000      -0.341099        -9.2818
  53   1.0000      -0.333280        -9.0690
  54   1.0000      -0.331652        -9.0247
  55   1.0000      -0.331051        -9.0084
  56   1.0000      -0.328139        -8.9291
  57   1.0000      -0.325086        -8.8460
  58   1.0000      -0.321400        -8.7457
  59   1.0000      -0.285598        -7.7715
  60   1.0000      -0.276510        -7.5242
  61   1.0000      -0.274883        -7.4800
  62   1.0000      -0.271266        -7.3815
  63   1.0000      -0.231114        -6.2889
  64   1.0000      -0.174652        -4.7525
  65   0.0000      -0.048341        -1.3154
  66   0.0000       0.010944         0.2978
  67   0.0000       0.040497         1.1020
  68   0.0000       0.049396         1.3441
  69   0.0000       0.052824         1.4374

                 SPIN DOWN ORBITALS
  NO   OCC          E(Eh)            E(eV)
   0   1.0000     -10.215038      -277.9653
   1   1.0000     -10.212060      -277.8843
   2   1.0000     -10.202505      -277.6243
   3   1.0000     -10.200626      -277.5732
   4   1.0000     -10.193503      -277.3793
   5   1.0000     -10.193326      -277.3745
   6   1.0000     -10.192384      -277.3489
   7   1.0000     -10.191744      -277.3315
   8   1.0000     -10.189618      -277.2736
   9   1.0000     -10.188079      -277.2317
  10   1.0000     -10.187638      -277.2197
  11   1.0000     -10.185332      -277.1570
  12   1.0000     -10.184297      -277.1288
  13   1.0000     -10.183611      -277.1102
  14   1.0000     -10.182157      -277.0706
  15   1.0000     -10.181861      -277.0625
  16   1.0000     -10.177443      -276.9423
  17   1.0000     -10.175688      -276.8945
  18   1.0000      -0.872188       -23.7334
  19   1.0000      -0.816054       -22.2060
  20   1.0000      -0.795799       -21.6548
  21   1.0000      -0.794994       -21.6329
  22   1.0000      -0.766993       -20.8709
  23   1.0000      -0.751913       -20.4606
  24   1.0000      -0.727645       -19.8002
  25   1.0000      -0.719940       -19.5906
  26   1.0000      -0.696398       -18.9500
  27   1.0000      -0.654511       -17.8102
  28   1.0000      -0.638240       -17.3674
  29   1.0000      -0.612407       -16.6644
  30   1.0000      -0.593699       -16.1554
  31   1.0000      -0.579275       -15.7629
  32   1.0000      -0.560764       -15.2592
  33   1.0000      -0.540934       -14.7196
  34   1.0000      -0.522042       -14.2055
  35   1.0000      -0.497255       -13.5310
  36   1.0000      -0.485443       -13.2096
  37   1.0000      -0.477131       -12.9834
  38   1.0000      -0.470149       -12.7934
  39   1.0000      -0.459319       -12.4987
  40   1.0000      -0.432156       -11.7596
  41   1.0000      -0.429158       -11.6780
  42   1.0000      -0.425526       -11.5791
  43   1.0000      -0.419682       -11.4201
  44   1.0000      -0.412082       -11.2133
  45   1.0000      -0.397412       -10.8141
  46   1.0000      -0.391217       -10.6455
  47   1.0000      -0.377452       -10.2710
  48   1.0000      -0.377162       -10.2631
  49   1.0000      -0.364796        -9.9266
  50   1.0000      -0.357137        -9.7182
  51   1.0000      -0.351741        -9.5714
  52   1.0000      -0.338793        -9.2190
  53   1.0000      -0.332766        -9.0550
  54   1.0000      -0.330022        -8.9804
  55   1.0000      -0.328649        -8.9430
  56   1.0000      -0.327795        -8.9198
  57   1.0000      -0.324327        -8.8254
  58   1.0000      -0.320666        -8.7258
  59   1.0000      -0.280075        -7.6212
  60   1.0000      -0.276470        -7.5231
  61   1.0000      -0.274229        -7.4622
  62   1.0000      -0.258860        -7.0440
  63   1.0000      -0.223116        -6.0713
  64   0.0000      -0.084264        -2.2929
  65   0.0000      -0.039287        -1.0691
  66   0.0000       0.027032         0.7356
  67   0.0000       0.040898         1.1129
  68   0.0000       0.049701         1.3524

MULLIKEN ATOMIC CHARGES AND SPIN POPULATIONS
--------------------------------------------
   0 C :   -0.600421    0.101673
   1 C :    0.631360   -0.060426
   2 C :    0.624526    0.028809
   3 C :   -0.049295    0.228296
   4 C :    0.081066   -0.167082
   5 C :   -0.012507    0.219499
   6 C :   -0.022378   -0.110344
   7 C :   -0.076671    0.237470
   8 C :    0.025555   -0.118779
   9 H :   -0.048885   -0.009113
  10 H :   -0.049796    0.004312
  11 C :   -0.098592    0.705668
  12 H :   -0.021199   -0.030047
  13 C :    0.032648   -0.048379
  14 H :    0.029588    0.031767
  15 H :    0.029611    0.031655
  16 C :   -0.038787    0.002288
  17 H :    0.013202    0.000470
  18 H :    0.013216    0.000458
  19 C :    0.005394   -0.000180
  20 H :    0.017714    0.000155
  21 H :    0.017727    0.000154
  22 C :    0.042936   -0.018782
  23 H :    0.032200    0.010182
  24 H :    0.032174    0.010121
  25 C :   -0.036565    0.000871
  26 H :    0.016903    0.000185
  27 H :    0.016978    0.000180
  28 C :   -0.024415    0.000023
  29 H :    0.006214    0.000053
  30 H :    0.006199    0.000053
  31 C :    0.002947   -0.000081
  32 H :    0.017344    0.000024
  33 H :    0.017363    0.000024
  34 C :   -0.601619   -0.048780
  35 H :   -0.029762   -0.004098
  36 H :   -0.028583    0.001915
  37 H :    0.013756   -0.000204
  38 H :    0.012852   -0.000005
Sum of atomic charges         :    0.0000000

LOEWDIN ATOMIC CHARGES AND SPIN POPULATIONS
-------------------------------------------
   0 C :   -0.051028    0.081295
   1 C :   -0.002686   -0.023893
   2 C :   -0.000828    0.013370
   3 C :   -0.040691    0.163105
   4 C :   -0.039672   -0.071091
   5 C :    0.011141    0.165665
   6 C :   -0.053882   -0.060208
   7 C :   -0.004627    0.175693
   8 C :   -0.006820   -0.065095
   9 H :    0.029670    0.000878
  10 H :    0.031118   -0.000467
  11 C :    0.014460    0.580238
  12 H :    0.023271    0.003327
  13 C :   -0.054736    0.005524
  14 H :    0.034687    0.024813
  15 H :    0.034642    0.024719
  16 C :   -0.045855    0.001160
  17 H :    0.025965    0.000299
  18 H :    0.025975    0.000292
  19 C :   -0.067667   -0.000043
  20 H :    0.025642    0.000249
  21 H :    0.025646    0.000248
  22 C :   -0.034948    0.002221
  23 H :    0.039858    0.008014
  24 H :    0.039843    0.007967
  25 C :   -0.043622    0.000158
  26 H :    0.024577    0.000060
  27 H :    0.024568    0.000059
  28 C :   -0.047021    0.000016
  29 H :    0.024207    0.000089
  30 H :    0.024200    0.000089
  31 C :   -0.067628   -0.000038
  32 H :    0.025288    0.000016
  33 H :    0.025292    0.000016
  34 C :   -0.049696   -0.038677
  35 H :    0.022449    0.000128
  36 H :    0.022933   -0.000078
  37 H :    0.028434   -0.000112
  38 H :    0.027541   -0.000007

  Mayer bond orders larger than 0.100000
B(  0-C ,  1-C ) :   2.1010 B(  0-C , 35-H ) :   1.1190 B(  1-C ,  3-C ) :   0.9067
B(  2-C ,  6-C ) :   0.9029 B(  2-C , 34-C ) :   2.1272 B(  3-C ,  4-C ) :   1.2774
B(  3-C ,  8-C ) :   1.3953 B(  4-C ,  5-C ) :   1.2851 B(  4-C , 11-C ) :   1.3682
B(  5-C ,  6-C ) :   1.4404 B(  5-C ,  9-H ) :   0.9198 B(  6-C ,  7-C ) :   1.3427
B(  7-C ,  8-C ) :   1.4094 B(  7-C , 22-C ) :   1.0925 B(  8-C , 10-H ) :   0.9214
B( 11-C , 12-H ) :   0.9028 B( 11-C , 13-C ) :   1.0838 B( 13-C , 14-H ) :   0.9117
B( 13-C , 15-H ) :   0.9117 B( 13-C , 16-C ) :   1.0715 B( 16-C , 17-H ) :   0.9438
B( 16-C , 18-H ) :   0.9438 B( 16-C , 19-C ) :   1.1065 B( 19-C , 20-H ) :   0.9653
B( 19-C , 21-H ) :   0.9653 B( 19-C , 37-H ) :   0.9608 B( 22-C , 23-H ) :   0.8968
B( 22-C , 24-H ) :   0.8968 B( 22-C , 25-C ) :   1.1035 B( 25-C , 26-H ) :   0.9294
B( 25-C , 27-H ) :   0.9293 B( 25-C , 28-C ) :   1.0751 B( 28-C , 29-H ) :   0.9410
B( 28-C , 30-H ) :   0.9410 B( 28-C , 31-C ) :   1.1061 B( 31-C , 32-H ) :   0.9662
B( 31-C , 33-H ) :   0.9662 B( 31-C , 38-H ) :   0.9617 B( 34-C , 36-H ) :   1.1178

FINAL SINGLE POINT ENERGY      -697.967270578744

DIPOLE MOMENT
-------------
                                X             Y             Z
Electronic contribution:      0.61416       2.29041       0.01022
Nuclear contribution   :     -0.70376      -2.24976      -0.00945
                        -----------------------------------------
Total Dipole Moment    :     -0.08960       0.04065       0.00077
                        -----------------------------------------
Magnitude (a.u.)       :      0.09839
Magnitude (Debye)      :      0.25010

Rotational constants in cm-1:     0.022567     0.005964     0.004746
Rotational constants in MHz :   676.555654   178.787891   142.292788

CHEMICAL SHIELDING SUMMARY (ppm)  --  Orbital contribution
----------------------------------------------------------

  Nucleus  Element    Isotropic     Anisotropy
  -------  -------  ------------   ------------
      9       H           54.086         47.504
     10       H           58.004         38.862
     12       H           40.650         12.760
     14       H           64.143         14.844
     15       H           64.268         14.777
     17       H           25.515         19.108
     18       H           25.372         19.130
     20       H           15.688         15.255
     21       H           15.555         15.296
     23       H           52.700         30.194
     24       H           52.713         30.135
     26       H           72.460         13.367
     27       H           72.367         13.354
     29       H           22.491         19.959
     30       H           22.571         19.910
     32       H           21.070         14.068
     33       H           21.127         14.074
     35       H          -46.078        -45.694
     36       H          -47.515        -55.567
     37       H          -69.423         16.457
     38       H          -69.440         13.805

                             ****ORCA TERMINATED NORMALLY****
TOTAL RUN TIME: 0 days 0 hours 31 minutes 24 seconds 283 msec
