                         Program Version 5.0.4 -  RELEASE  -
|  1> ! B3LYP cc-pVDZ AUTOAUX
|  2> %pal nprocs 16 end
|  3> *XYZFile 0 2 opt.xyz
|  4> %EPRNMR
|  5>         GTENSOR   TRUE
|  6>         NUCLEI    = ALL H {SHIFT, AISO, ADIP, AORB}
|  7> END
|  8>
|  9>                          ****END OF INPUT****

CARTESIAN COORDINATES (ANGSTROEM)
---------------------------------
  C      3.991788   -0.049240    0.058108
  C      2.775740    0.000818    0.040924
  C     -2.904926    0.001969   -0.021065
  C      1.348501    0.035970    0.024651
  C      0.635243    1.290110    0.014122
  C     -0.786025    1.210124   -0.000914
  C     -1.471080   -0.005896   -0.005830
  C     -0.755051   -1.242724    0.004473
  C      0.640732   -1.178015    0.019328
  H     -1.371296    2.129824   -0.008865
  H      1.223342   -2.098995    0.027465
  C      1.310813    2.530858    0.018832
  H      2.403663    2.505003    0.030818
  C      0.641084    3.872285    0.008661
  H     -0.020408    3.959192   -0.878174
  H     -0.042671    3.961660    0.878176
  C      1.626345    5.048246    0.019383
  H      2.275422    4.965813    0.910219
  H      2.296697    4.963937   -0.855394
  C      0.933467    6.412041    0.009601
  H      0.280768    6.536675    0.890987
  H      0.302265    6.534793   -0.887575
  C     -1.517430   -2.551443   -0.000599
  H     -2.203439   -2.555198    0.867109
  H     -2.188523   -2.557024   -0.879837
  C     -0.686654   -3.837261    0.007762
  H     -0.015119   -3.856287   -0.870392
  H     -0.031197   -3.855470    0.897992
  C     -1.555555   -5.100742    0.000739
  H     -2.229365   -5.083796    0.877444
  H     -2.214538   -5.084219   -0.887176
  C     -0.737137   -6.394159    0.007906
  H     -0.093627   -6.456407    0.902512
  H     -0.079125   -6.457034   -0.876030
  C     -4.120621    0.011732   -0.035488
  H      5.062776   -0.099657    0.078803
  H     -5.192882    0.026348   -0.050615
  H      1.665288    7.235733    0.017560
  H     -1.387506   -7.283908    0.002941

 Total Charge           Charge          ....    0
 Multiplicity           Mult            ....    2
 Number of Electrons    NEL             ....  129
 Basis Dimension        Dim             ....  357

ORBITAL ENERGIES
----------------
                 SPIN UP ORBITALS
  NO   OCC          E(Eh)            E(eV)
   0   1.0000     -10.215392      -277.9749
   1   1.0000     -10.213429      -277.9215
   2   1.0000     -10.204321      -277.6737
   3   1.0000     -10.200135      -277.5598
   4   1.0000     -10.196681      -277.4658
   5   1.0000     -10.193559      -277.3808
   6   1.0000     -10.192812      -277.3605
   7   1.0000     -10.191845      -277.3342
   8   1.0000     -10.190782      -277.3053
   9   1.0000     -10.188910      -277.2543
  10   1.0000     -10.187497      -277.2159
  11   1.0000     -10.187320      -277.2111
  12   1.0000     -10.186706      -277.1944
  13   1.0000     -10.184317      -277.1293
  14   1.0000     -10.182189      -277.0714
  15   1.0000     -10.181854      -277.0623
  16   1.0000     -10.177404      -276.9412
  17   1.0000     -10.175652      -276.8936
  18   1.0000      -0.875660       -23.8279
  19   1.0000      -0.821144       -22.3445
  20   1.0000      -0.798417       -21.7260
  21   1.0000      -0.796404       -21.6712
  22   1.0000      -0.769061       -20.9272
  23   1.0000      -0.752761       -20.4837
  24   1.0000      -0.731761       -19.9122
  25   1.0000      -0.721394       -19.6301
  26   1.0000      -0.698777       -19.0147
  27   1.0000      -0.657589       -17.8939
  28   1.0000      -0.640126       -17.4187
  29   1.0000      -0.618010       -16.8169
  30   1.0000      -0.594662       -16.1816
  31   1.0000      -0.580851       -15.8058
  32   1.0000      -0.563312       -15.3285
  33   1.0000      -0.542222       -14.7546
  34   1.0000      -0.524590       -14.2748
  35   1.0000      -0.499449       -13.5907
  36   1.0000      -0.486888       -13.2489
  37   1.0000      -0.478527       -13.0214
  38   1.0000      -0.471045       -12.8178
  39   1.0000      -0.462818       -12.5939
  40   1.0000      -0.434254       -11.8167
  41   1.0000      -0.430656       -11.7187
  42   1.0000      -0.426758       -11.6127
  43   1.0000      -0.422416       -11.4945
  44   1.0000      -0.412567       -11.2265
  45   1.0000      -0.399069       -10.8592
  46   1.0000      -0.398527       -10.8445
  47   1.0000      -0.381057       -10.3691
  48   1.0000      -0.379754       -10.3336
  49   1.0000      -0.365979        -9.9588
  50   1.0000      -0.358156        -9.7459
  51   1.0000      -0.354914        -9.6577
  52   1.0000      -0.341088        -9.2815
  53   1.0000      -0.333267        -9.0687
  54   1.0000      -0.331650        -9.0246
  55   1.0000      -0.331038        -9.0080
  56   1.0000      -0.328152        -8.9295
  57   1.0000      -0.325110        -8.8467
  58   1.0000      -0.321408        -8.7459
  59   1.0000      -0.285588        -7.7712
  60   1.0000      -0.276490        -7.5237
  61   1.0000      -0.274864        -7.4794
  62   1.0000      -0.271306        -7.3826
  63   1.0000      -0.231117        -6.2890
  64   1.0000      -0.174660        -4.7527
  65   0.0000      -0.048353        -1.3158
  66   0.0000       0.010897         0.2965
  67   0.0000       0.040511         1.1024
  68   0.0000       0.049413         1.3446
  69   0.0000       0.052830         1.4376

                 SPIN DOWN ORBITALS
  NO   OCC          E(Eh)            E(eV)
   0   1.0000     -10.215050      -277.9657
   1   1.0000     -10.211970      -277.8818
   2   1.0000     -10.202585      -277.6264
   3   1.0000     -10.200863      -277.5796
   4   1.0000     -10.193594      -277.3818
   5   1.0000     -10.193442      -277.3777
   6   1.0000     -10.192434      -277.3502
   7   1.0000     -10.191540      -277.3259
   8   1.0000     -10.189591      -277.2729
   9   1.0000     -10.187930      -277.2277
  10   1.0000     -10.187701      -277.2214
  11   1.0000     -10.185432      -277.1597
  12   1.0000     -10.184278      -277.1283
  13   1.0000     -10.183540      -277.1082
  14   1.0000     -10.182185      -277.0713
  15   1.0000     -10.181854      -277.0623
  16   1.0000     -10.177411      -276.9414
  17   1.0000     -10.175654      -276.8936
  18   1.0000      -0.872234       -23.7347
  19   1.0000      -0.816072       -22.2064
  20   1.0000      -0.795807       -21.6550
  21   1.0000      -0.794979       -21.6325
  22   1.0000      -0.767018       -20.8716
  23   1.0000      -0.751892       -20.4600
  24   1.0000      -0.727652       -19.8004
  25   1.0000      -0.719928       -19.5902
  26   1.0000      -0.696404       -18.9501
  27   1.0000      -0.654527       -17.8106
  28   1.0000      -0.638249       -17.3676
  29   1.0000      -0.612417       -16.6647
  30   1.0000      -0.593701       -16.1554
  31   1.0000      -0.579278       -15.7630
  32   1.0000      -0.560779       -15.2596
  33   1.0000      -0.540930       -14.7195
  34   1.0000      -0.522043       -14.2055
  35   1.0000      -0.497257       -13.5310
  36   1.0000      -0.485447       -13.2097
  37   1.0000      -0.477149       -12.9839
  38   1.0000      -0.470166       -12.7939
  39   1.0000      -0.459306       -12.4983
  40   1.0000      -0.432180       -11.7602
  41   1.0000      -0.429190       -11.6789
  42   1.0000      -0.425521       -11.5790
  43   1.0000      -0.419704       -11.4207
  44   1.0000      -0.412088       -11.2135
  45   1.0000      -0.397423       -10.8144
  46   1.0000      -0.391213       -10.6454
  47   1.0000      -0.377460       -10.2712
  48   1.0000      -0.377172       -10.2634
  49   1.0000      -0.364808        -9.9269
  50   1.0000      -0.357153        -9.7186
  51   1.0000      -0.351748        -9.5715
  52   1.0000      -0.338783        -9.2188
  53   1.0000      -0.332753        -9.0547
  54   1.0000      -0.330017        -8.9802
  55   1.0000      -0.328636        -8.9426
  56   1.0000      -0.327807        -8.9201
  57   1.0000      -0.324349        -8.8260
  58   1.0000      -0.320673        -8.7259
  59   1.0000      -0.280060        -7.6208
  60   1.0000      -0.276450        -7.5226
  61   1.0000      -0.274210        -7.4616
  62   1.0000      -0.258912        -7.0454
  63   1.0000      -0.223116        -6.0713
  64   0.0000      -0.084273        -2.2932
  65   0.0000      -0.039298        -1.0694
  66   0.0000       0.026992         0.7345
  67   0.0000       0.040911         1.1132
  68   0.0000       0.049717         1.3529

MULLIKEN ATOMIC CHARGES AND SPIN POPULATIONS
--------------------------------------------
   0 C :   -0.600658    0.101506
   1 C :    0.631608   -0.060254
   2 C :    0.624368    0.028560
   3 C :   -0.049203    0.228152
   4 C :    0.081019   -0.167005
   5 C :   -0.012546    0.219386
   6 C :   -0.022352   -0.110185
   7 C :   -0.076810    0.237322
   8 C :    0.025520   -0.118663
   9 H :   -0.048872   -0.009100
  10 H :   -0.049783    0.004303
  11 C :   -0.098526    0.705720
  12 H :   -0.021207   -0.030052
  13 C :    0.032650   -0.048388
  14 H :    0.029582    0.031770
  15 H :    0.029606    0.031658
  16 C :   -0.038784    0.002287
  17 H :    0.013200    0.000470
  18 H :    0.013213    0.000458
  19 C :    0.005401   -0.000180
  20 H :    0.017711    0.000155
  21 H :    0.017724    0.000154
  22 C :    0.042935   -0.018757
  23 H :    0.032213    0.010177
  24 H :    0.032187    0.010116
  25 C :   -0.036573    0.000869
  26 H :    0.016908    0.000185
  27 H :    0.016982    0.000180
  28 C :   -0.024402    0.000023
  29 H :    0.006213    0.000053
  30 H :    0.006198    0.000053
  31 C :    0.002961   -0.000081
  32 H :    0.017340    0.000024
  33 H :    0.017359    0.000024
  34 C :   -0.601435   -0.048541
  35 H :   -0.029752   -0.004084
  36 H :   -0.028598    0.001895
  37 H :    0.013753   -0.000204
  38 H :    0.012849   -0.000005
Sum of atomic charges         :   -0.0000000

LOEWDIN ATOMIC CHARGES AND SPIN POPULATIONS
-------------------------------------------
   0 C :   -0.051181    0.081181
   1 C :   -0.002521   -0.023803
   2 C :   -0.000925    0.013236
   3 C :   -0.040621    0.163037
   4 C :   -0.039698   -0.071055
   5 C :    0.011111    0.165598
   6 C :   -0.053878   -0.060139
   7 C :   -0.004726    0.175608
   8 C :   -0.006846   -0.065029
   9 H :    0.029677    0.000883
  10 H :    0.031126   -0.000470
  11 C :    0.014502    0.580284
  12 H :    0.023269    0.003326
  13 C :   -0.054733    0.005523
  14 H :    0.034683    0.024815
  15 H :    0.034638    0.024721
  16 C :   -0.045853    0.001160
  17 H :    0.025964    0.000299
  18 H :    0.025974    0.000292
  19 C :   -0.067663   -0.000043
  20 H :    0.025640    0.000249
  21 H :    0.025645    0.000248
  22 C :   -0.034952    0.002227
  23 H :    0.039866    0.008011
  24 H :    0.039850    0.007964
  25 C :   -0.043625    0.000158
  26 H :    0.024579    0.000060
  27 H :    0.024570    0.000059
  28 C :   -0.047012    0.000016
  29 H :    0.024207    0.000089
  30 H :    0.024200    0.000089
  31 C :   -0.067618   -0.000038
  32 H :    0.025285    0.000016
  33 H :    0.025290    0.000016
  34 C :   -0.049574   -0.038518
  35 H :    0.022451    0.000133
  36 H :    0.022927   -0.000084
  37 H :    0.028432   -0.000112
  38 H :    0.027539   -0.000007

  Mayer bond orders larger than 0.100000
B(  0-C ,  1-C ) :   2.1010 B(  0-C , 35-H ) :   1.1190 B(  1-C ,  3-C ) :   0.9067
B(  2-C ,  6-C ) :   0.9029 B(  2-C , 34-C ) :   2.1272 B(  3-C ,  4-C ) :   1.2774
B(  3-C ,  8-C ) :   1.3953 B(  4-C ,  5-C ) :   1.2851 B(  4-C , 11-C ) :   1.3681
B(  5-C ,  6-C ) :   1.4404 B(  5-C ,  9-H ) :   0.9198 B(  6-C ,  7-C ) :   1.3427
B(  7-C ,  8-C ) :   1.4094 B(  7-C , 22-C ) :   1.0925 B(  8-C , 10-H ) :   0.9214
B( 11-C , 12-H ) :   0.9028 B( 11-C , 13-C ) :   1.0838 B( 13-C , 14-H ) :   0.9117
B( 13-C , 15-H ) :   0.9117 B( 13-C , 16-C ) :   1.0715 B( 16-C , 17-H ) :   0.9438
B( 16-C , 18-H ) :   0.9438 B( 16-C , 19-C ) :   1.1065 B( 19-C , 20-H ) :   0.9653
B( 19-C , 21-H ) :   0.9653 B( 19-C , 37-H ) :   0.9608 B( 22-C , 23-H ) :   0.8968
B( 22-C , 24-H ) :   0.8968 B( 22-C , 25-C ) :   1.1035 B( 25-C , 26-H ) :   0.9294
B( 25-C , 27-H ) :   0.9293 B( 25-C , 28-C ) :   1.0751 B( 28-C , 29-H ) :   0.9410
B( 28-C , 30-H ) :   0.9410 B( 28-C , 31-C ) :   1.1061 B( 31-C , 32-H ) :   0.9662
B( 31-C , 33-H ) :   0.9662 B( 31-C , 38-H ) :   0.9617 B( 34-C , 36-H ) :   1.1178

FINAL SINGLE POINT ENERGY      -697.967270251741

DIPOLE MOMENT
-------------
                                X             Y             Z
Electronic contribution:      0.61379       2.29055       0.01021
Nuclear contribution   :     -0.70376      -2.24976      -0.00945
                        -----------------------------------------
Total Dipole Moment    :     -0.08997       0.04079       0.00076
                        -----------------------------------------
Magnitude (a.u.)       :      0.09879
Magnitude (Debye)      :      0.25111

Rotational constants in cm-1:     0.022567     0.005964     0.004746
Rotational constants in MHz :   676.555654   178.787891   142.292788

CHEMICAL SHIELDING SUMMARY (ppm)  --  Orbital contribution
----------------------------------------------------------

  Nucleus  Element    Isotropic     Anisotropy
  -------  -------  ------------   ------------
      9       H           24.426         11.247
     10       H           24.472         12.126
     12       H           25.343         11.527
     14       H           29.014          4.285
     15       H           29.014          4.282
     17       H           29.710          6.619
     18       H           29.709          6.623
     20       H           30.346          7.851
     21       H           30.346          7.851
     23       H           28.768          5.479
     24       H           28.765          5.514
     26       H           29.874          4.669
     27       H           29.870          4.681
     29       H           29.928          6.412
     30       H           29.929          6.413
     32       H           30.336          7.863
     33       H           30.336          7.861
     35       H           28.084         10.097
     36       H           28.266         10.646
     37       H           30.117         10.001
     38       H           30.128         10.197

                             ****ORCA TERMINATED NORMALLY****
TOTAL RUN TIME: 0 days 0 hours 31 minutes 52 seconds 843 msec
