                         Program Version 5.0.4 -  RELEASE  -
|  1> ! B3LYP cc-pVDZ AUTOAUX
|  2> %pal nprocs 16 end
|  3> *XYZFile 0 2 opt_cc-pVDZ.xyz
|  4> %EPRNMR
|  5>         GTENSOR   TRUE
|  6>         NUCLEI    = ALL H {SHIFT, AISO, ADIP, AORB}
|  7>         ORI       GIAO
|  8> END
|  9>
| 10>                          ****END OF INPUT****

CARTESIAN COORDINATES (ANGSTROEM)
---------------------------------
  C      3.991784   -0.048435    0.056346
  C      2.775712    0.001154    0.039648
  C     -2.904921    0.001529   -0.021694
  C      1.348481    0.036063    0.023781
  C      0.635152    1.290201    0.013521
  C     -0.786150    1.210014   -0.001501
  C     -1.471087   -0.006069   -0.006317
  C     -0.754959   -1.242857    0.003885
  C      0.640797   -1.177975    0.018518
  H     -1.371712    2.129541   -0.009530
  H      1.223674   -2.098813    0.026483
  C      1.310504    2.530996    0.018452
  H      2.403361    2.505271    0.030469
  C      0.640754    3.872473    0.008531
  H     -0.020275    3.959854   -0.878575
  H     -0.043331    3.961474    0.877793
  C      1.626405    5.048189    0.020362
  H      2.274910    4.965134    0.911543
  H      2.297355    4.964108   -0.853963
  C      0.933927    6.412245    0.010752
  H      0.280780    6.536667    0.891827
  H      0.303418    6.535595   -0.886820
  C     -1.517089   -2.551625   -0.001122
  H     -2.203424   -2.555125    0.866315
  H     -2.187900   -2.557491   -0.880574
  C     -0.686255   -3.837418    0.007984
  H     -0.014409   -3.856931   -0.869895
  H     -0.031140   -3.855437    0.898451
  C     -1.555636   -5.100694    0.001104
  H     -2.229939   -5.082944    0.877396
  H     -2.214140   -5.084251   -0.887149
  C     -0.737690   -6.394490    0.009386
  H     -0.094861   -6.456485    0.904485
  H     -0.079170   -6.457885   -0.874119
  C     -4.120618    0.011094   -0.036179
  H      5.062828   -0.098171    0.076211
  H     -5.192896    0.025363   -0.051172
  H      1.665950    7.235757    0.019557
  H     -1.388424   -7.283966    0.004373

 Total Charge           Charge          ....    0
 Multiplicity           Mult            ....    2
 Number of Electrons    NEL             ....  129
 Basis Dimension        Dim             ....  357

ORBITAL ENERGIES
----------------
                 SPIN UP ORBITALS
  NO   OCC          E(Eh)            E(eV)
   0   1.0000     -10.215482      -277.9774
   1   1.0000     -10.213407      -277.9209
   2   1.0000     -10.204084      -277.6672
   3   1.0000     -10.200053      -277.5575
   4   1.0000     -10.196586      -277.4632
   5   1.0000     -10.193638      -277.3830
   6   1.0000     -10.192760      -277.3591
   7   1.0000     -10.191727      -277.3310
   8   1.0000     -10.190968      -277.3103
   9   1.0000     -10.188950      -277.2554
  10   1.0000     -10.187469      -277.2151
  11   1.0000     -10.187445      -277.2145
  12   1.0000     -10.186616      -277.1919
  13   1.0000     -10.184334      -277.1298
  14   1.0000     -10.182174      -277.0710
  15   1.0000     -10.181854      -277.0623
  16   1.0000     -10.177431      -276.9420
  17   1.0000     -10.175689      -276.8946
  18   1.0000      -0.875612       -23.8266
  19   1.0000      -0.821129       -22.3441
  20   1.0000      -0.798429       -21.7264
  21   1.0000      -0.796382       -21.6707
  22   1.0000      -0.769029       -20.9264
  23   1.0000      -0.752776       -20.4841
  24   1.0000      -0.731752       -19.9120
  25   1.0000      -0.721400       -19.6303
  26   1.0000      -0.698764       -19.0143
  27   1.0000      -0.657587       -17.8939
  28   1.0000      -0.640111       -17.4183
  29   1.0000      -0.617995       -16.8165
  30   1.0000      -0.594654       -16.1814
  31   1.0000      -0.580861       -15.8060
  32   1.0000      -0.563307       -15.3284
  33   1.0000      -0.542223       -14.7546
  34   1.0000      -0.524582       -14.2746
  35   1.0000      -0.499444       -13.5906
  36   1.0000      -0.486892       -13.2490
  37   1.0000      -0.478498       -13.0206
  38   1.0000      -0.471026       -12.8173
  39   1.0000      -0.462825       -12.5941
  40   1.0000      -0.434238       -11.8162
  41   1.0000      -0.430611       -11.7175
  42   1.0000      -0.426751       -11.6125
  43   1.0000      -0.422394       -11.4939
  44   1.0000      -0.412553       -11.2261
  45   1.0000      -0.399080       -10.8595
  46   1.0000      -0.398518       -10.8442
  47   1.0000      -0.381059       -10.3691
  48   1.0000      -0.379740       -10.3332
  49   1.0000      -0.365960        -9.9583
  50   1.0000      -0.358126        -9.7451
  51   1.0000      -0.354920        -9.6579
  52   1.0000      -0.341096        -9.2817
  53   1.0000      -0.333282        -9.0691
  54   1.0000      -0.331653        -9.0247
  55   1.0000      -0.331054        -9.0085
  56   1.0000      -0.328150        -8.9294
  57   1.0000      -0.325079        -8.8459
  58   1.0000      -0.321415        -8.7461
  59   1.0000      -0.285600        -7.7716
  60   1.0000      -0.276508        -7.5242
  61   1.0000      -0.274881        -7.4799
  62   1.0000      -0.271269        -7.3816
  63   1.0000      -0.231111        -6.2888
  64   1.0000      -0.174653        -4.7526
  65   0.0000      -0.048337        -1.3153
  66   0.0000       0.010949         0.2979
  67   0.0000       0.040496         1.1019
  68   0.0000       0.049401         1.3443
  69   0.0000       0.052827         1.4375

                 SPIN DOWN ORBITALS
  NO   OCC          E(Eh)            E(eV)
   0   1.0000     -10.215032      -277.9651
   1   1.0000     -10.212058      -277.8842
   2   1.0000     -10.202503      -277.6242
   3   1.0000     -10.200623      -277.5731
   4   1.0000     -10.193497      -277.3791
   5   1.0000     -10.193326      -277.3745
   6   1.0000     -10.192382      -277.3488
   7   1.0000     -10.191741      -277.3314
   8   1.0000     -10.189631      -277.2740
   9   1.0000     -10.188077      -277.2317
  10   1.0000     -10.187650      -277.2200
  11   1.0000     -10.185327      -277.1568
  12   1.0000     -10.184295      -277.1288
  13   1.0000     -10.183621      -277.1104
  14   1.0000     -10.182170      -277.0709
  15   1.0000     -10.181855      -277.0624
  16   1.0000     -10.177438      -276.9422
  17   1.0000     -10.175691      -276.8946
  18   1.0000      -0.872184       -23.7333
  19   1.0000      -0.816057       -22.2061
  20   1.0000      -0.795793       -21.6546
  21   1.0000      -0.794982       -21.6326
  22   1.0000      -0.766982       -20.8707
  23   1.0000      -0.751911       -20.4605
  24   1.0000      -0.727642       -19.8001
  25   1.0000      -0.719936       -19.5905
  26   1.0000      -0.696395       -18.9499
  27   1.0000      -0.654521       -17.8104
  28   1.0000      -0.638236       -17.3673
  29   1.0000      -0.612403       -16.6643
  30   1.0000      -0.593695       -16.1553
  31   1.0000      -0.579289       -15.7632
  32   1.0000      -0.560774       -15.2594
  33   1.0000      -0.540931       -14.7195
  34   1.0000      -0.522037       -14.2054
  35   1.0000      -0.497251       -13.5309
  36   1.0000      -0.485451       -13.2098
  37   1.0000      -0.477119       -12.9831
  38   1.0000      -0.470147       -12.7934
  39   1.0000      -0.459312       -12.4985
  40   1.0000      -0.432153       -11.7595
  41   1.0000      -0.429157       -11.6779
  42   1.0000      -0.425515       -11.5789
  43   1.0000      -0.419683       -11.4202
  44   1.0000      -0.412074       -11.2131
  45   1.0000      -0.397414       -10.8142
  46   1.0000      -0.391225       -10.6458
  47   1.0000      -0.377445       -10.2708
  48   1.0000      -0.377171       -10.2633
  49   1.0000      -0.364788        -9.9264
  50   1.0000      -0.357123        -9.7178
  51   1.0000      -0.351749        -9.5716
  52   1.0000      -0.338791        -9.2190
  53   1.0000      -0.332769        -9.0551
  54   1.0000      -0.330024        -8.9804
  55   1.0000      -0.328653        -8.9431
  56   1.0000      -0.327804        -8.9200
  57   1.0000      -0.324321        -8.8252
  58   1.0000      -0.320680        -8.7261
  59   1.0000      -0.280074        -7.6212
  60   1.0000      -0.276469        -7.5231
  61   1.0000      -0.274227        -7.4621
  62   1.0000      -0.258862        -7.0440
  63   1.0000      -0.223112        -6.0712
  64   0.0000      -0.084271        -2.2931
  65   0.0000      -0.039281        -1.0689
  66   0.0000       0.027037         0.7357
  67   0.0000       0.040896         1.1128
  68   0.0000       0.049706         1.3526

MULLIKEN ATOMIC CHARGES AND SPIN POPULATIONS
--------------------------------------------
   0 C :   -0.600424    0.101678
   1 C :    0.631357   -0.060426
   2 C :    0.624513    0.028809
   3 C :   -0.049311    0.228309
   4 C :    0.081100   -0.167085
   5 C :   -0.012539    0.219508
   6 C :   -0.022383   -0.110344
   7 C :   -0.076633    0.237476
   8 C :    0.025552   -0.118778
   9 H :   -0.048887   -0.009114
  10 H :   -0.049792    0.004312
  11 C :   -0.098625    0.705646
  12 H :   -0.021191   -0.030046
  13 C :    0.032694   -0.048379
  14 H :    0.029588    0.031766
  15 H :    0.029613    0.031645
  16 C :   -0.038828    0.002287
  17 H :    0.013199    0.000472
  18 H :    0.013219    0.000457
  19 C :    0.005400   -0.000180
  20 H :    0.017715    0.000155
  21 H :    0.017733    0.000154
  22 C :    0.042902   -0.018782
  23 H :    0.032205    0.010180
  24 H :    0.032183    0.010125
  25 C :   -0.036519    0.000871
  26 H :    0.016919    0.000184
  27 H :    0.016967    0.000180
  28 C :   -0.024456    0.000023
  29 H :    0.006208    0.000053
  30 H :    0.006197    0.000053
  31 C :    0.002967   -0.000081
  32 H :    0.017350    0.000024
  33 H :    0.017371    0.000024
  34 C :   -0.601634   -0.048781
  35 H :   -0.029761   -0.004099
  36 H :   -0.028579    0.001915
  37 H :    0.013753   -0.000204
  38 H :    0.012857   -0.000005
Sum of atomic charges         :   -0.0000000

LOEWDIN ATOMIC CHARGES AND SPIN POPULATIONS
-------------------------------------------
   0 C :   -0.051027    0.081299
   1 C :   -0.002692   -0.023892
   2 C :   -0.000831    0.013370
   3 C :   -0.040688    0.163116
   4 C :   -0.039675   -0.071088
   5 C :    0.011150    0.165676
   6 C :   -0.053884   -0.060207
   7 C :   -0.004641    0.175695
   8 C :   -0.006829   -0.065092
   9 H :    0.029668    0.000877
  10 H :    0.031122   -0.000467
  11 C :    0.014445    0.580213
  12 H :    0.023276    0.003327
  13 C :   -0.054706    0.005518
  14 H :    0.034681    0.024813
  15 H :    0.034636    0.024708
  16 C :   -0.045843    0.001160
  17 H :    0.025963    0.000300
  18 H :    0.025968    0.000292
  19 C :   -0.067670   -0.000043
  20 H :    0.025639    0.000248
  21 H :    0.025644    0.000248
  22 C :   -0.034964    0.002225
  23 H :    0.039865    0.008013
  24 H :    0.039852    0.007971
  25 C :   -0.043596    0.000158
  26 H :    0.024568    0.000060
  27 H :    0.024567    0.000059
  28 C :   -0.046997    0.000016
  29 H :    0.024197    0.000090
  30 H :    0.024193    0.000090
  31 C :   -0.067626   -0.000039
  32 H :    0.025287    0.000016
  33 H :    0.025289    0.000016
  34 C :   -0.049698   -0.038677
  35 H :    0.022451    0.000128
  36 H :    0.022937   -0.000078
  37 H :    0.028433   -0.000112
  38 H :    0.027538   -0.000007

  Mayer bond orders larger than 0.100000
B(  0-C ,  1-C ) :   2.1010 B(  0-C , 35-H ) :   1.1190 B(  1-C ,  3-C ) :   0.9067
B(  2-C ,  6-C ) :   0.9029 B(  2-C , 34-C ) :   2.1271 B(  3-C ,  4-C ) :   1.2774
B(  3-C ,  8-C ) :   1.3953 B(  4-C ,  5-C ) :   1.2850 B(  4-C , 11-C ) :   1.3682
B(  5-C ,  6-C ) :   1.4405 B(  5-C ,  9-H ) :   0.9198 B(  6-C ,  7-C ) :   1.3427
B(  7-C ,  8-C ) :   1.4094 B(  7-C , 22-C ) :   1.0925 B(  8-C , 10-H ) :   0.9214
B( 11-C , 12-H ) :   0.9028 B( 11-C , 13-C ) :   1.0838 B( 13-C , 14-H ) :   0.9117
B( 13-C , 15-H ) :   0.9117 B( 13-C , 16-C ) :   1.0715 B( 16-C , 17-H ) :   0.9438
B( 16-C , 18-H ) :   0.9438 B( 16-C , 19-C ) :   1.1065 B( 19-C , 20-H ) :   0.9653
B( 19-C , 21-H ) :   0.9653 B( 19-C , 37-H ) :   0.9608 B( 22-C , 23-H ) :   0.8968
B( 22-C , 24-H ) :   0.8968 B( 22-C , 25-C ) :   1.1035 B( 25-C , 26-H ) :   0.9294
B( 25-C , 27-H ) :   0.9293 B( 25-C , 28-C ) :   1.0751 B( 28-C , 29-H ) :   0.9410
B( 28-C , 30-H ) :   0.9410 B( 28-C , 31-C ) :   1.1061 B( 31-C , 32-H ) :   0.9662
B( 31-C , 33-H ) :   0.9662 B( 31-C , 38-H ) :   0.9617 B( 34-C , 36-H ) :   1.1178

FINAL SINGLE POINT ENERGY      -697.967270763201

DIPOLE MOMENT
-------------
                                X             Y             Z
Electronic contribution:      0.61392       2.28992       0.00075
Nuclear contribution   :     -0.70353      -2.24924       0.00006
                        -----------------------------------------
Total Dipole Moment    :     -0.08961       0.04067       0.00081
                        -----------------------------------------
Magnitude (a.u.)       :      0.09841
Magnitude (Debye)      :      0.25014

Rotational constants in cm-1:     0.022570     0.005963     0.004746
Rotational constants in MHz :   676.637009   178.773730   142.287384

CHEMICAL SHIELDING SUMMARY (ppm)  --  Orbital contribution
----------------------------------------------------------

  Nucleus  Element    Isotropic     Anisotropy
  -------  -------  ------------   ------------
      9       H           24.434         11.233
     10       H           24.476         12.120
     12       H           25.344         11.531
     14       H           29.019          4.286
     15       H           29.015          4.279
     17       H           29.706          6.615
     18       H           29.708          6.624
     20       H           30.344          7.852
     21       H           30.346          7.849
     23       H           28.769          5.479
     24       H           28.767          5.509
     26       H           29.879          4.673
     27       H           29.874          4.681
     29       H           29.929          6.409
     30       H           29.932          6.413
     32       H           30.337          7.858
     33       H           30.340          7.860
     35       H           28.082         10.098
     36       H           28.265         10.646
     37       H           30.114         10.004
     38       H           30.128         10.196

                             ****ORCA TERMINATED NORMALLY****
TOTAL RUN TIME: 0 days 0 hours 31 minutes 49 seconds 395 msec
