                         Program Version 5.0.4 -  RELEASE  -
|  1> ! B3LYP cc-pVDZ AUTOAUX
|  2> %pal nprocs 16 end
|  3> *XYZFile 0 2 opt.xyz
|  4> %EPRNMR
|  5>         GTENSOR   TRUE
|  6>         NUCLEI    = ALL H {SHIFT, AISO, ADIP, AORB}
|  7>         ORI       GIAO
|  8> END
|  9>
| 10>                          ****END OF INPUT****

CARTESIAN COORDINATES (ANGSTROEM)
---------------------------------
  C      3.991788   -0.049240    0.058108
  C      2.775740    0.000818    0.040924
  C     -2.904926    0.001969   -0.021065
  C      1.348501    0.035970    0.024651
  C      0.635243    1.290110    0.014122
  C     -0.786025    1.210124   -0.000914
  C     -1.471080   -0.005896   -0.005830
  C     -0.755051   -1.242724    0.004473
  C      0.640732   -1.178015    0.019328
  H     -1.371296    2.129824   -0.008865
  H      1.223342   -2.098995    0.027465
  C      1.310813    2.530858    0.018832
  H      2.403663    2.505003    0.030818
  C      0.641084    3.872285    0.008661
  H     -0.020408    3.959192   -0.878174
  H     -0.042671    3.961660    0.878176
  C      1.626345    5.048246    0.019383
  H      2.275422    4.965813    0.910219
  H      2.296697    4.963937   -0.855394
  C      0.933467    6.412041    0.009601
  H      0.280768    6.536675    0.890987
  H      0.302265    6.534793   -0.887575
  C     -1.517430   -2.551443   -0.000599
  H     -2.203439   -2.555198    0.867109
  H     -2.188523   -2.557024   -0.879837
  C     -0.686654   -3.837261    0.007762
  H     -0.015119   -3.856287   -0.870392
  H     -0.031197   -3.855470    0.897992
  C     -1.555555   -5.100742    0.000739
  H     -2.229365   -5.083796    0.877444
  H     -2.214538   -5.084219   -0.887176
  C     -0.737137   -6.394159    0.007906
  H     -0.093627   -6.456407    0.902512
  H     -0.079125   -6.457034   -0.876030
  C     -4.120621    0.011732   -0.035488
  H      5.062776   -0.099657    0.078803
  H     -5.192882    0.026348   -0.050615
  H      1.665288    7.235733    0.017560
  H     -1.387506   -7.283908    0.002941

 Total Charge           Charge          ....    0
 Multiplicity           Mult            ....    2
 Number of Electrons    NEL             ....  129
 Basis Dimension        Dim             ....  357

ORBITAL ENERGIES
----------------
                 SPIN UP ORBITALS
  NO   OCC          E(Eh)            E(eV)
   0   1.0000     -10.215436      -277.9761
   1   1.0000     -10.213452      -277.9222
   2   1.0000     -10.204135      -277.6686
   3   1.0000     -10.200049      -277.5574
   4   1.0000     -10.196609      -277.4638
   5   1.0000     -10.193602      -277.3820
   6   1.0000     -10.192792      -277.3600
   7   1.0000     -10.191740      -277.3314
   8   1.0000     -10.190909      -277.3087
   9   1.0000     -10.188933      -277.2550
  10   1.0000     -10.187455      -277.2147
  11   1.0000     -10.187448      -277.2146
  12   1.0000     -10.186666      -277.1933
  13   1.0000     -10.184334      -277.1298
  14   1.0000     -10.182166      -277.0708
  15   1.0000     -10.181859      -277.0625
  16   1.0000     -10.177440      -276.9422
  17   1.0000     -10.175687      -276.8945
  18   1.0000      -0.875622       -23.8269
  19   1.0000      -0.821129       -22.3441
  20   1.0000      -0.798432       -21.7264
  21   1.0000      -0.796396       -21.6710
  22   1.0000      -0.769044       -20.9267
  23   1.0000      -0.752778       -20.4841
  24   1.0000      -0.731760       -19.9122
  25   1.0000      -0.721405       -19.6304
  26   1.0000      -0.698769       -19.0145
  27   1.0000      -0.657581       -17.8937
  28   1.0000      -0.640118       -17.4185
  29   1.0000      -0.618004       -16.8167
  30   1.0000      -0.594660       -16.1815
  31   1.0000      -0.580851       -15.8058
  32   1.0000      -0.563300       -15.3282
  33   1.0000      -0.542225       -14.7547
  34   1.0000      -0.524588       -14.2748
  35   1.0000      -0.499450       -13.5907
  36   1.0000      -0.486885       -13.2488
  37   1.0000      -0.478513       -13.0210
  38   1.0000      -0.471031       -12.8174
  39   1.0000      -0.462831       -12.5943
  40   1.0000      -0.434239       -11.8163
  41   1.0000      -0.430625       -11.7179
  42   1.0000      -0.426763       -11.6128
  43   1.0000      -0.422399       -11.4941
  44   1.0000      -0.412564       -11.2264
  45   1.0000      -0.399074       -10.8594
  46   1.0000      -0.398518       -10.8442
  47   1.0000      -0.381052       -10.3689
  48   1.0000      -0.379750       -10.3335
  49   1.0000      -0.365971        -9.9586
  50   1.0000      -0.358143        -9.7456
  51   1.0000      -0.354909        -9.6576
  52   1.0000      -0.341097        -9.2817
  53   1.0000      -0.333280        -9.0690
  54   1.0000      -0.331656        -9.0248
  55   1.0000      -0.331049        -9.0083
  56   1.0000      -0.328142        -8.9292
  57   1.0000      -0.325093        -8.8462
  58   1.0000      -0.321403        -8.7458
  59   1.0000      -0.285597        -7.7715
  60   1.0000      -0.276515        -7.5243
  61   1.0000      -0.274877        -7.4798
  62   1.0000      -0.271273        -7.3817
  63   1.0000      -0.231117        -6.2890
  64   1.0000      -0.174650        -4.7525
  65   0.0000      -0.048351        -1.3157
  66   0.0000       0.010936         0.2976
  67   0.0000       0.040497         1.1020
  68   0.0000       0.049397         1.3442
  69   0.0000       0.052826         1.4375

                 SPIN DOWN ORBITALS
  NO   OCC          E(Eh)            E(eV)
   0   1.0000     -10.215068      -277.9661
   1   1.0000     -10.212021      -277.8832
   2   1.0000     -10.202494      -277.6240
   3   1.0000     -10.200684      -277.5747
   4   1.0000     -10.193528      -277.3800
   5   1.0000     -10.193333      -277.3747
   6   1.0000     -10.192426      -277.3500
   7   1.0000     -10.191669      -277.3294
   8   1.0000     -10.189614      -277.2735
   9   1.0000     -10.188045      -277.2308
  10   1.0000     -10.187658      -277.2203
  11   1.0000     -10.185392      -277.1586
  12   1.0000     -10.184295      -277.1288
  13   1.0000     -10.183581      -277.1093
  14   1.0000     -10.182163      -277.0707
  15   1.0000     -10.181859      -277.0625
  16   1.0000     -10.177448      -276.9424
  17   1.0000     -10.175689      -276.8946
  18   1.0000      -0.872197       -23.7337
  19   1.0000      -0.816058       -22.2061
  20   1.0000      -0.795805       -21.6550
  21   1.0000      -0.794990       -21.6328
  22   1.0000      -0.766997       -20.8711
  23   1.0000      -0.751913       -20.4606
  24   1.0000      -0.727646       -19.8003
  25   1.0000      -0.719940       -19.5906
  26   1.0000      -0.696400       -18.9500
  27   1.0000      -0.654517       -17.8103
  28   1.0000      -0.638243       -17.3675
  29   1.0000      -0.612410       -16.6645
  30   1.0000      -0.593700       -16.1554
  31   1.0000      -0.579276       -15.7629
  32   1.0000      -0.560767       -15.2592
  33   1.0000      -0.540934       -14.7196
  34   1.0000      -0.522042       -14.2055
  35   1.0000      -0.497256       -13.5310
  36   1.0000      -0.485445       -13.2096
  37   1.0000      -0.477135       -12.9835
  38   1.0000      -0.470154       -12.7935
  39   1.0000      -0.459317       -12.4987
  40   1.0000      -0.432162       -11.7597
  41   1.0000      -0.429162       -11.6781
  42   1.0000      -0.425526       -11.5792
  43   1.0000      -0.419692       -11.4204
  44   1.0000      -0.412085       -11.2134
  45   1.0000      -0.397415       -10.8142
  46   1.0000      -0.391215       -10.6455
  47   1.0000      -0.377454       -10.2711
  48   1.0000      -0.377167       -10.2632
  49   1.0000      -0.364800        -9.9267
  50   1.0000      -0.357141        -9.7183
  51   1.0000      -0.351744        -9.5714
  52   1.0000      -0.338790        -9.2190
  53   1.0000      -0.332765        -9.0550
  54   1.0000      -0.330025        -8.9804
  55   1.0000      -0.328648        -8.9430
  56   1.0000      -0.327798        -8.9198
  57   1.0000      -0.324334        -8.8256
  58   1.0000      -0.320670        -8.7259
  59   1.0000      -0.280073        -7.6212
  60   1.0000      -0.276473        -7.5232
  61   1.0000      -0.274225        -7.4620
  62   1.0000      -0.258867        -7.0441
  63   1.0000      -0.223115        -6.0713
  64   0.0000      -0.084265        -2.2930
  65   0.0000      -0.039293        -1.0692
  66   0.0000       0.027024         0.7354
  67   0.0000       0.040897         1.1129
  68   0.0000       0.049702         1.3525

MULLIKEN ATOMIC CHARGES AND SPIN POPULATIONS
--------------------------------------------
   0 C :   -0.600405    0.101357
   1 C :    0.631298   -0.060082
   2 C :    0.624556    0.028310
   3 C :   -0.049329    0.228001
   4 C :    0.081153   -0.166927
   5 C :   -0.012482    0.219277
   6 C :   -0.022476   -0.110020
   7 C :   -0.076556    0.237179
   8 C :    0.025610   -0.118551
   9 H :   -0.048895   -0.009086
  10 H :   -0.049813    0.004293
  11 C :   -0.098623    0.705765
  12 H :   -0.021200   -0.030057
  13 C :    0.032640   -0.048397
  14 H :    0.029587    0.031774
  15 H :    0.029611    0.031662
  16 C :   -0.038791    0.002287
  17 H :    0.013205    0.000470
  18 H :    0.013219    0.000457
  19 C :    0.005371   -0.000180
  20 H :    0.017720    0.000155
  21 H :    0.017733    0.000154
  22 C :    0.042933   -0.018731
  23 H :    0.032194    0.010172
  24 H :    0.032168    0.010112
  25 C :   -0.036554    0.000867
  26 H :    0.016901    0.000185
  27 H :    0.016976    0.000180
  28 C :   -0.024417    0.000023
  29 H :    0.006214    0.000053
  30 H :    0.006199    0.000053
  31 C :    0.002922   -0.000081
  32 H :    0.017351    0.000024
  33 H :    0.017369    0.000024
  34 C :   -0.601687   -0.048318
  35 H :   -0.029753   -0.004072
  36 H :   -0.028570    0.001878
  37 H :    0.013763   -0.000204
  38 H :    0.012857   -0.000005
Sum of atomic charges         :    0.0000000

LOEWDIN ATOMIC CHARGES AND SPIN POPULATIONS
-------------------------------------------
   0 C :   -0.051012    0.081081
   1 C :   -0.002727   -0.023720
   2 C :   -0.000823    0.013113
   3 C :   -0.040709    0.162971
   4 C :   -0.039620   -0.071025
   5 C :    0.011159    0.165539
   6 C :   -0.053937   -0.060075
   7 C :   -0.004558    0.175529
   8 C :   -0.006782   -0.064970
   9 H :    0.029664    0.000888
  10 H :    0.031109   -0.000473
  11 C :    0.014438    0.580328
  12 H :    0.023267    0.003327
  13 C :   -0.054741    0.005521
  14 H :    0.034686    0.024817
  15 H :    0.034641    0.024723
  16 C :   -0.045855    0.001159
  17 H :    0.025966    0.000299
  18 H :    0.025976    0.000292
  19 C :   -0.067680   -0.000043
  20 H :    0.025645    0.000249
  21 H :    0.025649    0.000248
  22 C :   -0.034949    0.002233
  23 H :    0.039855    0.008008
  24 H :    0.039839    0.007961
  25 C :   -0.043616    0.000158
  26 H :    0.024576    0.000060
  27 H :    0.024567    0.000059
  28 C :   -0.047021    0.000016
  29 H :    0.024207    0.000089
  30 H :    0.024200    0.000089
  31 C :   -0.067641   -0.000038
  32 H :    0.025291    0.000016
  33 H :    0.025295    0.000016
  34 C :   -0.049735   -0.038376
  35 H :    0.022456    0.000138
  36 H :    0.022939   -0.000090
  37 H :    0.028438   -0.000112
  38 H :    0.027543   -0.000007

  Mayer bond orders larger than 0.100000
B(  0-C ,  1-C ) :   2.1010 B(  0-C , 35-H ) :   1.1190 B(  1-C ,  3-C ) :   0.9067
B(  2-C ,  6-C ) :   0.9029 B(  2-C , 34-C ) :   2.1271 B(  3-C ,  4-C ) :   1.2774
B(  3-C ,  8-C ) :   1.3953 B(  4-C ,  5-C ) :   1.2852 B(  4-C , 11-C ) :   1.3681
B(  5-C ,  6-C ) :   1.4404 B(  5-C ,  9-H ) :   0.9198 B(  6-C ,  7-C ) :   1.3427
B(  7-C ,  8-C ) :   1.4094 B(  7-C , 22-C ) :   1.0925 B(  8-C , 10-H ) :   0.9214
B( 11-C , 12-H ) :   0.9029 B( 11-C , 13-C ) :   1.0838 B( 13-C , 14-H ) :   0.9117
B( 13-C , 15-H ) :   0.9117 B( 13-C , 16-C ) :   1.0715 B( 16-C , 17-H ) :   0.9438
B( 16-C , 18-H ) :   0.9438 B( 16-C , 19-C ) :   1.1065 B( 19-C , 20-H ) :   0.9653
B( 19-C , 21-H ) :   0.9653 B( 19-C , 37-H ) :   0.9608 B( 22-C , 23-H ) :   0.8968
B( 22-C , 24-H ) :   0.8968 B( 22-C , 25-C ) :   1.1035 B( 25-C , 26-H ) :   0.9294
B( 25-C , 27-H ) :   0.9293 B( 25-C , 28-C ) :   1.0751 B( 28-C , 29-H ) :   0.9410
B( 28-C , 30-H ) :   0.9410 B( 28-C , 31-C ) :   1.1061 B( 31-C , 32-H ) :   0.9662
B( 31-C , 33-H ) :   0.9662 B( 31-C , 38-H ) :   0.9617 B( 34-C , 36-H ) :   1.1178

FINAL SINGLE POINT ENERGY      -697.967269960101

DIPOLE MOMENT
-------------
                                X             Y             Z
Electronic contribution:      0.61444       2.29021       0.01022
Nuclear contribution   :     -0.70376      -2.24976      -0.00945
                        -----------------------------------------
Total Dipole Moment    :     -0.08932       0.04045       0.00077
                        -----------------------------------------
Magnitude (a.u.)       :      0.09806
Magnitude (Debye)      :      0.24924

Rotational constants in cm-1:     0.022567     0.005964     0.004746
Rotational constants in MHz :   676.555654   178.787891   142.292788

CHEMICAL SHIELDING SUMMARY (ppm)  --  Orbital contribution
----------------------------------------------------------

  Nucleus  Element    Isotropic     Anisotropy
  -------  -------  ------------   ------------
      9       H           24.432         11.237
     10       H           24.476         12.121
     12       H           25.344         11.527
     14       H           29.017          4.284
     15       H           29.016          4.281
     17       H           29.709          6.617
     18       H           29.707          6.621
     20       H           30.345          7.850
     21       H           30.344          7.850
     23       H           28.770          5.478
     24       H           28.767          5.513
     26       H           29.878          4.671
     27       H           29.874          4.683
     29       H           29.931          6.411
     30       H           29.932          6.411
     32       H           30.338          7.861
     33       H           30.338          7.859
     35       H           28.082         10.098
     36       H           28.264         10.647
     37       H           30.114         10.005
     38       H           30.129         10.196

                             ****ORCA TERMINATED NORMALLY****
TOTAL RUN TIME: 0 days 0 hours 32 minutes 35 seconds 676 msec
