                         Program Version 5.0.4 -  RELEASE  -
|  1> ! B3LYP EPR-II AUTOAUX
|  2> %pal nprocs 16 end
|  3> *XYZFile 0 2 opt.xyz
|  4> %EPRNMR
|  5>         GTENSOR   TRUE
|  6>         NUCLEI    = ALL H {SHIFT, AISO, ADIP, AORB}
|  7> END
|  8>
|  9>                          ****END OF INPUT****

CARTESIAN COORDINATES (ANGSTROEM)
---------------------------------
  C      3.991788   -0.049240    0.058108
  C      2.775740    0.000818    0.040924
  C     -2.904926    0.001969   -0.021065
  C      1.348501    0.035970    0.024651
  C      0.635243    1.290110    0.014122
  C     -0.786025    1.210124   -0.000914
  C     -1.471080   -0.005896   -0.005830
  C     -0.755051   -1.242724    0.004473
  C      0.640732   -1.178015    0.019328
  H     -1.371296    2.129824   -0.008865
  H      1.223342   -2.098995    0.027465
  C      1.310813    2.530858    0.018832
  H      2.403663    2.505003    0.030818
  C      0.641084    3.872285    0.008661
  H     -0.020408    3.959192   -0.878174
  H     -0.042671    3.961660    0.878176
  C      1.626345    5.048246    0.019383
  H      2.275422    4.965813    0.910219
  H      2.296697    4.963937   -0.855394
  C      0.933467    6.412041    0.009601
  H      0.280768    6.536675    0.890987
  H      0.302265    6.534793   -0.887575
  C     -1.517430   -2.551443   -0.000599
  H     -2.203439   -2.555198    0.867109
  H     -2.188523   -2.557024   -0.879837
  C     -0.686654   -3.837261    0.007762
  H     -0.015119   -3.856287   -0.870392
  H     -0.031197   -3.855470    0.897992
  C     -1.555555   -5.100742    0.000739
  H     -2.229365   -5.083796    0.877444
  H     -2.214538   -5.084219   -0.887176
  C     -0.737137   -6.394159    0.007906
  H     -0.093627   -6.456407    0.902512
  H     -0.079125   -6.457034   -0.876030
  C     -4.120621    0.011732   -0.035488
  H      5.062776   -0.099657    0.078803
  H     -5.192882    0.026348   -0.050615
  H      1.665288    7.235733    0.017560
  H     -1.387506   -7.283908    0.002941

 Total Charge           Charge          ....    0
 Multiplicity           Mult            ....    2
 Number of Electrons    NEL             ....  129
 Basis Dimension        Dim             ....  453

ORBITAL ENERGIES
----------------
                 SPIN UP ORBITALS
  NO   OCC          E(Eh)            E(eV)
   0   1.0000     -10.225907      -278.2611
   1   1.0000     -10.224105      -278.2121
   2   1.0000     -10.213857      -277.9332
   3   1.0000     -10.210737      -277.8483
   4   1.0000     -10.207173      -277.7513
   5   1.0000     -10.205069      -277.6941
   6   1.0000     -10.204278      -277.6725
   7   1.0000     -10.199641      -277.5463
   8   1.0000     -10.199287      -277.5367
   9   1.0000     -10.198337      -277.5109
  10   1.0000     -10.197862      -277.4979
  11   1.0000     -10.190807      -277.3060
  12   1.0000     -10.188795      -277.2512
  13   1.0000     -10.185554      -277.1630
  14   1.0000     -10.183022      -277.0941
  15   1.0000     -10.182564      -277.0817
  16   1.0000     -10.175457      -276.8883
  17   1.0000     -10.173232      -276.8277
  18   1.0000      -0.875773       -23.8310
  19   1.0000      -0.820712       -22.3327
  20   1.0000      -0.798463       -21.7273
  21   1.0000      -0.795177       -21.6379
  22   1.0000      -0.768094       -20.9009
  23   1.0000      -0.754644       -20.5349
  24   1.0000      -0.730858       -19.8877
  25   1.0000      -0.723204       -19.6794
  26   1.0000      -0.697822       -18.9887
  27   1.0000      -0.656904       -17.8753
  28   1.0000      -0.641126       -17.4459
  29   1.0000      -0.617396       -16.8002
  30   1.0000      -0.594558       -16.1788
  31   1.0000      -0.580394       -15.7933
  32   1.0000      -0.563390       -15.3306
  33   1.0000      -0.544052       -14.8044
  34   1.0000      -0.526241       -14.3198
  35   1.0000      -0.500573       -13.6213
  36   1.0000      -0.488000       -13.2792
  37   1.0000      -0.478665       -13.0251
  38   1.0000      -0.470841       -12.8122
  39   1.0000      -0.463041       -12.6000
  40   1.0000      -0.434506       -11.8235
  41   1.0000      -0.430725       -11.7206
  42   1.0000      -0.426355       -11.6017
  43   1.0000      -0.422467       -11.4959
  44   1.0000      -0.412257       -11.2181
  45   1.0000      -0.399355       -10.8670
  46   1.0000      -0.398337       -10.8393
  47   1.0000      -0.381457       -10.3800
  48   1.0000      -0.379963       -10.3393
  49   1.0000      -0.365639        -9.9495
  50   1.0000      -0.358199        -9.7471
  51   1.0000      -0.355170        -9.6647
  52   1.0000      -0.340550        -9.2668
  53   1.0000      -0.333057        -9.0629
  54   1.0000      -0.332401        -9.0451
  55   1.0000      -0.331259        -9.0140
  56   1.0000      -0.327706        -8.9173
  57   1.0000      -0.324133        -8.8201
  58   1.0000      -0.321144        -8.7388
  59   1.0000      -0.287053        -7.8111
  60   1.0000      -0.278657        -7.5826
  61   1.0000      -0.277043        -7.5387
  62   1.0000      -0.272125        -7.4049
  63   1.0000      -0.232839        -6.3359
  64   1.0000      -0.175562        -4.7773
  65   0.0000      -0.051440        -1.3997
  66   0.0000       0.008140         0.2215
  67   0.0000       0.018719         0.5094
  68   0.0000       0.021120         0.5747
  69   0.0000       0.024391         0.6637

                 SPIN DOWN ORBITALS
  NO   OCC          E(Eh)            E(eV)
   0   1.0000     -10.225722      -278.2560
   1   1.0000     -10.222489      -278.1681
   2   1.0000     -10.213163      -277.9143
   3   1.0000     -10.210402      -277.8392
   4   1.0000     -10.206768      -277.7403
   5   1.0000     -10.205868      -277.7158
   6   1.0000     -10.201207      -277.5890
   7   1.0000     -10.200873      -277.5799
   8   1.0000     -10.198965      -277.5280
   9   1.0000     -10.196574      -277.4629
  10   1.0000     -10.191475      -277.3241
  11   1.0000     -10.189735      -277.2768
  12   1.0000     -10.188994      -277.2566
  13   1.0000     -10.185517      -277.1620
  14   1.0000     -10.183019      -277.0940
  15   1.0000     -10.182565      -277.0817
  16   1.0000     -10.175466      -276.8885
  17   1.0000     -10.173234      -276.8278
  18   1.0000      -0.872354       -23.7379
  19   1.0000      -0.815705       -22.1964
  20   1.0000      -0.795925       -21.6582
  21   1.0000      -0.793519       -21.5928
  22   1.0000      -0.766139       -20.8477
  23   1.0000      -0.753878       -20.5141
  24   1.0000      -0.726665       -19.7736
  25   1.0000      -0.721782       -19.6407
  26   1.0000      -0.695457       -18.9243
  27   1.0000      -0.653793       -17.7906
  28   1.0000      -0.639247       -17.3948
  29   1.0000      -0.611896       -16.6505
  30   1.0000      -0.593586       -16.1523
  31   1.0000      -0.578797       -15.7499
  32   1.0000      -0.560975       -15.2649
  33   1.0000      -0.542739       -14.7687
  34   1.0000      -0.523843       -14.2545
  35   1.0000      -0.498212       -13.5570
  36   1.0000      -0.486554       -13.2398
  37   1.0000      -0.477219       -12.9858
  38   1.0000      -0.469938       -12.7877
  39   1.0000      -0.459530       -12.5044
  40   1.0000      -0.432792       -11.7769
  41   1.0000      -0.428793       -11.6681
  42   1.0000      -0.425069       -11.5667
  43   1.0000      -0.419747       -11.4219
  44   1.0000      -0.411819       -11.2062
  45   1.0000      -0.397212       -10.8087
  46   1.0000      -0.391575       -10.6553
  47   1.0000      -0.377648       -10.2763
  48   1.0000      -0.377528       -10.2731
  49   1.0000      -0.364422        -9.9164
  50   1.0000      -0.357203        -9.7200
  51   1.0000      -0.351962        -9.5774
  52   1.0000      -0.338150        -9.2015
  53   1.0000      -0.332562        -9.0495
  54   1.0000      -0.330610        -8.9964
  55   1.0000      -0.328943        -8.9510
  56   1.0000      -0.327356        -8.9078
  57   1.0000      -0.323449        -8.8015
  58   1.0000      -0.320550        -8.7226
  59   1.0000      -0.281855        -7.6697
  60   1.0000      -0.278604        -7.5812
  61   1.0000      -0.276402        -7.5213
  62   1.0000      -0.259448        -7.0599
  63   1.0000      -0.224937        -6.1208
  64   0.0000      -0.085917        -2.3379
  65   0.0000      -0.042576        -1.1586
  66   0.0000       0.019067         0.5188
  67   0.0000       0.021331         0.5804
  68   0.0000       0.023967         0.6522

MULLIKEN ATOMIC CHARGES AND SPIN POPULATIONS
--------------------------------------------
   0 C :   -0.540913    0.099576
   1 C :   -0.008054   -0.052495
   2 C :    0.002916    0.025045
   3 C :    0.359335    0.203061
   4 C :    0.451143   -0.134326
   5 C :   -0.455552    0.209594
   6 C :    0.426492   -0.093619
   7 C :    0.302532    0.222882
   8 C :   -0.397346   -0.109634
   9 H :    0.130739   -0.011390
  10 H :    0.133153    0.005116
  11 C :   -0.293016    0.698319
  12 H :    0.133603   -0.036475
  13 C :   -0.266927   -0.046059
  14 H :    0.150707    0.031188
  15 H :    0.150495    0.031097
  16 C :   -0.283537    0.002199
  17 H :    0.153631   -0.000173
  18 H :    0.153619   -0.000173
  19 C :   -0.506750   -0.000764
  20 H :    0.157326    0.000177
  21 H :    0.157334    0.000177
  22 C :   -0.384582   -0.016544
  23 H :    0.153692    0.010849
  24 H :    0.153564    0.010789
  25 C :   -0.264525    0.000915
  26 H :    0.139708    0.000185
  27 H :    0.139574    0.000183
  28 C :   -0.254787   -0.000231
  29 H :    0.142294    0.000043
  30 H :    0.142270    0.000044
  31 C :   -0.508493   -0.000086
  32 H :    0.157905    0.000025
  33 H :    0.157922    0.000026
  34 C :   -0.541175   -0.047206
  35 H :    0.183891   -0.004044
  36 H :    0.183268    0.001905
  37 H :    0.145182   -0.000170
  38 H :    0.143360   -0.000005
Sum of atomic charges         :    0.0000000

LOEWDIN ATOMIC CHARGES AND SPIN POPULATIONS
-------------------------------------------
   0 C :   -0.064007    0.079548
   1 C :   -0.033484   -0.022447
   2 C :   -0.030232    0.012825
   3 C :   -0.058477    0.162745
   4 C :   -0.067312   -0.069632
   5 C :    0.009836    0.166343
   6 C :   -0.071881   -0.059575
   7 C :   -0.040879    0.175900
   8 C :   -0.008974   -0.064576
   9 H :    0.062730    0.001053
  10 H :    0.064315   -0.000508
  11 C :   -0.008622    0.577599
  12 H :    0.061832    0.003930
  13 C :   -0.087447    0.003579
  14 H :    0.057032    0.025475
  15 H :    0.056967    0.025389
  16 C :   -0.093379    0.000971
  17 H :    0.045164   -0.000066
  18 H :    0.045165   -0.000067
  19 C :   -0.083970   -0.000128
  20 H :    0.036681    0.000216
  21 H :    0.036690    0.000216
  22 C :   -0.048434    0.001669
  23 H :    0.062638    0.008615
  24 H :    0.062632    0.008570
  25 C :   -0.084381    0.000193
  26 H :    0.047124    0.000008
  27 H :    0.047071    0.000009
  28 C :   -0.095798    0.000008
  29 H :    0.043694    0.000062
  30 H :    0.043691    0.000062
  31 C :   -0.084841   -0.000033
  32 H :    0.036473    0.000017
  33 H :    0.036469    0.000017
  34 C :   -0.060533   -0.038070
  35 H :    0.048763    0.000366
  36 H :    0.049082   -0.000193
  37 H :    0.034701   -0.000084
  38 H :    0.033903   -0.000006

  Mayer bond orders larger than 0.100000
B(  0-C ,  1-C ) :   2.6897 B(  0-C , 35-H ) :   0.9871 B(  1-C ,  3-C ) :   0.9295
B(  2-C ,  6-C ) :   0.9097 B(  2-C , 34-C ) :   2.7069 B(  3-C ,  4-C ) :   1.2401
B(  3-C ,  8-C ) :   1.4336 B(  4-C ,  5-C ) :   1.2506 B(  4-C ,  6-C ) :   0.1054
B(  4-C , 11-C ) :   1.2704 B(  5-C ,  6-C ) :   1.4792 B(  5-C ,  9-H ) :   0.9734
B(  5-C , 34-C ) :   0.1010 B(  6-C ,  7-C ) :   1.3160 B(  6-C ,  8-C ) :   0.1045
B(  7-C ,  8-C ) :   1.4297 B(  7-C , 22-C ) :   0.9458 B(  8-C , 10-H ) :   0.9702
B( 11-C , 12-H ) :   0.9882 B( 11-C , 13-C ) :   1.0061 B( 13-C , 14-H ) :   0.9541
B( 13-C , 15-H ) :   0.9540 B( 13-C , 16-C ) :   0.9812 B( 16-C , 17-H ) :   0.9720
B( 16-C , 18-H ) :   0.9720 B( 16-C , 19-C ) :   0.9614 B( 19-C , 20-H ) :   0.9726
B( 19-C , 21-H ) :   0.9726 B( 19-C , 37-H ) :   0.9672 B( 22-C , 23-H ) :   0.9587
B( 22-C , 24-H ) :   0.9587 B( 22-C , 25-C ) :   1.0208 B( 25-C , 26-H ) :   0.9606
B( 25-C , 27-H ) :   0.9604 B( 25-C , 28-C ) :   0.9880 B( 28-C , 29-H ) :   0.9711
B( 28-C , 30-H ) :   0.9710 B( 28-C , 31-C ) :   0.9542 B( 31-C , 32-H ) :   0.9728
B( 31-C , 33-H ) :   0.9728 B( 31-C , 38-H ) :   0.9675 B( 34-C , 36-H ) :   0.9840

FINAL SINGLE POINT ENERGY      -698.028149199305

DIPOLE MOMENT
-------------
                                X             Y             Z
Electronic contribution:      0.60375       2.30582       0.01034
Nuclear contribution   :     -0.70376      -2.24976      -0.00945
                        -----------------------------------------
Total Dipole Moment    :     -0.10001       0.05606       0.00089
                        -----------------------------------------
Magnitude (a.u.)       :      0.11465
Magnitude (Debye)      :      0.29143

Rotational constants in cm-1:     0.022567     0.005964     0.004746
Rotational constants in MHz :   676.555654   178.787891   142.292788

CHEMICAL SHIELDING SUMMARY (ppm)  --  Orbital contribution
----------------------------------------------------------

  Nucleus  Element    Isotropic     Anisotropy
  -------  -------  ------------   ------------
      9       H           24.397         11.696
     10       H           24.494         12.610
     12       H           25.411         11.927
     14       H           29.213          4.455
     15       H           29.213          4.457
     17       H           29.928          6.775
     18       H           29.926          6.779
     20       H           30.766          8.019
     21       H           30.766          8.019
     23       H           28.913          5.732
     24       H           28.911          5.766
     26       H           30.074          4.788
     27       H           30.070          4.802
     29       H           30.163          6.457
     30       H           30.164          6.457
     32       H           30.731          8.029
     33       H           30.731          8.028
     35       H           28.289         10.102
     36       H           28.512         10.788
     37       H           30.492         10.062
     38       H           30.501         10.267

                             ****ORCA TERMINATED NORMALLY****
TOTAL RUN TIME: 0 days 0 hours 36 minutes 21 seconds 534 msec
