                         Program Version 5.0.4 -  RELEASE  -
|  1> ! B3LYP EPR-II AUTOAUX
|  2> %pal nprocs 16 end
|  3> *XYZFile 0 2 opt.xyz
|  4> %EPRNMR
|  5>         GTENSOR   TRUE
|  6>         NUCLEI    = ALL H {SHIFT, AISO, ADIP, AORB}
|  7>         ORI       CenterOfElCharge
|  8> END
|  9>
| 10>                          ****END OF INPUT****

CARTESIAN COORDINATES (ANGSTROEM)
---------------------------------
  C      3.991788   -0.049240    0.058108
  C      2.775740    0.000818    0.040924
  C     -2.904926    0.001969   -0.021065
  C      1.348501    0.035970    0.024651
  C      0.635243    1.290110    0.014122
  C     -0.786025    1.210124   -0.000914
  C     -1.471080   -0.005896   -0.005830
  C     -0.755051   -1.242724    0.004473
  C      0.640732   -1.178015    0.019328
  H     -1.371296    2.129824   -0.008865
  H      1.223342   -2.098995    0.027465
  C      1.310813    2.530858    0.018832
  H      2.403663    2.505003    0.030818
  C      0.641084    3.872285    0.008661
  H     -0.020408    3.959192   -0.878174
  H     -0.042671    3.961660    0.878176
  C      1.626345    5.048246    0.019383
  H      2.275422    4.965813    0.910219
  H      2.296697    4.963937   -0.855394
  C      0.933467    6.412041    0.009601
  H      0.280768    6.536675    0.890987
  H      0.302265    6.534793   -0.887575
  C     -1.517430   -2.551443   -0.000599
  H     -2.203439   -2.555198    0.867109
  H     -2.188523   -2.557024   -0.879837
  C     -0.686654   -3.837261    0.007762
  H     -0.015119   -3.856287   -0.870392
  H     -0.031197   -3.855470    0.897992
  C     -1.555555   -5.100742    0.000739
  H     -2.229365   -5.083796    0.877444
  H     -2.214538   -5.084219   -0.887176
  C     -0.737137   -6.394159    0.007906
  H     -0.093627   -6.456407    0.902512
  H     -0.079125   -6.457034   -0.876030
  C     -4.120621    0.011732   -0.035488
  H      5.062776   -0.099657    0.078803
  H     -5.192882    0.026348   -0.050615
  H      1.665288    7.235733    0.017560
  H     -1.387506   -7.283908    0.002941

 Total Charge           Charge          ....    0
 Multiplicity           Mult            ....    2
 Number of Electrons    NEL             ....  129
 Basis Dimension        Dim             ....  453

ORBITAL ENERGIES
----------------
                 SPIN UP ORBITALS
  NO   OCC          E(Eh)            E(eV)
   0   1.0000     -10.225976      -278.2630
   1   1.0000     -10.224146      -278.2131
   2   1.0000     -10.213651      -277.9276
   3   1.0000     -10.210618      -277.8450
   4   1.0000     -10.207166      -277.7511
   5   1.0000     -10.205272      -277.6996
   6   1.0000     -10.204197      -277.6703
   7   1.0000     -10.199680      -277.5474
   8   1.0000     -10.199168      -277.5335
   9   1.0000     -10.198470      -277.5145
  10   1.0000     -10.197757      -277.4951
  11   1.0000     -10.190825      -277.3065
  12   1.0000     -10.188752      -277.2500
  13   1.0000     -10.185570      -277.1635
  14   1.0000     -10.182993      -277.0933
  15   1.0000     -10.182573      -277.0819
  16   1.0000     -10.175497      -276.8894
  17   1.0000     -10.173272      -276.8288
  18   1.0000      -0.875734       -23.8299
  19   1.0000      -0.820696       -22.3323
  20   1.0000      -0.798480       -21.7277
  21   1.0000      -0.795170       -21.6377
  22   1.0000      -0.768075       -20.9004
  23   1.0000      -0.754667       -20.5355
  24   1.0000      -0.730855       -19.8876
  25   1.0000      -0.723216       -19.6797
  26   1.0000      -0.697812       -18.9884
  27   1.0000      -0.656894       -17.8750
  28   1.0000      -0.641120       -17.4458
  29   1.0000      -0.617387       -16.7999
  30   1.0000      -0.594556       -16.1787
  31   1.0000      -0.580393       -15.7933
  32   1.0000      -0.563377       -15.3303
  33   1.0000      -0.544055       -14.8045
  34   1.0000      -0.526236       -14.3196
  35   1.0000      -0.500572       -13.6212
  36   1.0000      -0.488001       -13.2792
  37   1.0000      -0.478648       -13.0247
  38   1.0000      -0.470827       -12.8119
  39   1.0000      -0.463051       -12.6003
  40   1.0000      -0.434486       -11.8230
  41   1.0000      -0.430689       -11.7196
  42   1.0000      -0.426360       -11.6019
  43   1.0000      -0.422453       -11.4955
  44   1.0000      -0.412255       -11.2180
  45   1.0000      -0.399357       -10.8670
  46   1.0000      -0.398327       -10.8390
  47   1.0000      -0.381453       -10.3799
  48   1.0000      -0.379955       -10.3391
  49   1.0000      -0.365630        -9.9493
  50   1.0000      -0.358184        -9.7467
  51   1.0000      -0.355168        -9.6646
  52   1.0000      -0.340558        -9.2670
  53   1.0000      -0.333067        -9.0632
  54   1.0000      -0.332412        -9.0454
  55   1.0000      -0.331270        -9.0143
  56   1.0000      -0.327696        -8.9171
  57   1.0000      -0.324115        -8.8196
  58   1.0000      -0.321141        -8.7387
  59   1.0000      -0.287062        -7.8113
  60   1.0000      -0.278685        -7.5834
  61   1.0000      -0.277058        -7.5391
  62   1.0000      -0.272086        -7.4038
  63   1.0000      -0.232838        -6.3359
  64   1.0000      -0.175549        -4.7769
  65   0.0000      -0.051433        -1.3996
  66   0.0000       0.008185         0.2227
  67   0.0000       0.018717         0.5093
  68   0.0000       0.021122         0.5747
  69   0.0000       0.024389         0.6637

                 SPIN DOWN ORBITALS
  NO   OCC          E(Eh)            E(eV)
   0   1.0000     -10.225765      -278.2572
   1   1.0000     -10.222556      -278.1699
   2   1.0000     -10.213045      -277.9111
   3   1.0000     -10.210193      -277.8335
   4   1.0000     -10.206759      -277.7400
   5   1.0000     -10.206076      -277.7214
   6   1.0000     -10.201124      -277.5867
   7   1.0000     -10.200756      -277.5767
   8   1.0000     -10.199101      -277.5316
   9   1.0000     -10.196463      -277.4599
  10   1.0000     -10.191493      -277.3246
  11   1.0000     -10.189775      -277.2779
  12   1.0000     -10.188951      -277.2555
  13   1.0000     -10.185533      -277.1624
  14   1.0000     -10.182990      -277.0933
  15   1.0000     -10.182573      -277.0819
  16   1.0000     -10.175506      -276.8896
  17   1.0000     -10.173273      -276.8288
  18   1.0000      -0.872313       -23.7368
  19   1.0000      -0.815690       -22.1961
  20   1.0000      -0.795932       -21.6584
  21   1.0000      -0.793523       -21.5929
  22   1.0000      -0.766116       -20.8471
  23   1.0000      -0.753903       -20.5147
  24   1.0000      -0.726659       -19.7734
  25   1.0000      -0.721795       -19.6411
  26   1.0000      -0.695451       -18.9242
  27   1.0000      -0.653780       -17.7903
  28   1.0000      -0.639242       -17.3947
  29   1.0000      -0.611887       -16.6503
  30   1.0000      -0.593584       -16.1522
  31   1.0000      -0.578795       -15.7498
  32   1.0000      -0.560962       -15.2646
  33   1.0000      -0.542742       -14.7688
  34   1.0000      -0.523839       -14.2544
  35   1.0000      -0.498211       -13.5570
  36   1.0000      -0.486555       -13.2398
  37   1.0000      -0.477201       -12.9853
  38   1.0000      -0.469925       -12.7873
  39   1.0000      -0.459541       -12.5047
  40   1.0000      -0.432768       -11.7762
  41   1.0000      -0.428762       -11.6672
  42   1.0000      -0.425074       -11.5668
  43   1.0000      -0.419733       -11.4215
  44   1.0000      -0.411817       -11.2061
  45   1.0000      -0.397201       -10.8084
  46   1.0000      -0.391577       -10.6554
  47   1.0000      -0.377639       -10.2761
  48   1.0000      -0.377521       -10.2729
  49   1.0000      -0.364414        -9.9162
  50   1.0000      -0.357189        -9.7196
  51   1.0000      -0.351958        -9.5773
  52   1.0000      -0.338157        -9.2017
  53   1.0000      -0.332571        -9.0497
  54   1.0000      -0.330623        -8.9967
  55   1.0000      -0.328955        -8.9513
  56   1.0000      -0.327347        -8.9076
  57   1.0000      -0.323432        -8.8010
  58   1.0000      -0.320547        -8.7225
  59   1.0000      -0.281869        -7.6701
  60   1.0000      -0.278633        -7.5820
  61   1.0000      -0.276418        -7.5217
  62   1.0000      -0.259395        -7.0585
  63   1.0000      -0.224940        -6.1209
  64   0.0000      -0.085903        -2.3375
  65   0.0000      -0.042569        -1.1584
  66   0.0000       0.019065         0.5188
  67   0.0000       0.021332         0.5805
  68   0.0000       0.024003         0.6532

MULLIKEN ATOMIC CHARGES AND SPIN POPULATIONS
--------------------------------------------
   0 C :   -0.540691    0.099725
   1 C :   -0.008305   -0.052623
   2 C :    0.002993    0.025236
   3 C :    0.359293    0.203167
   4 C :    0.451191   -0.134388
   5 C :   -0.455509    0.209700
   6 C :    0.426448   -0.093739
   7 C :    0.302642    0.223010
   8 C :   -0.397314   -0.109736
   9 H :    0.130727   -0.011404
  10 H :    0.133139    0.005126
  11 C :   -0.293058    0.698263
  12 H :    0.133603   -0.036468
  13 C :   -0.266930   -0.046053
  14 H :    0.150711    0.031184
  15 H :    0.150499    0.031093
  16 C :   -0.283539    0.002201
  17 H :    0.153634   -0.000173
  18 H :    0.153622   -0.000173
  19 C :   -0.506766   -0.000764
  20 H :    0.157330    0.000177
  21 H :    0.157338    0.000177
  22 C :   -0.384582   -0.016564
  23 H :    0.153682    0.010854
  24 H :    0.153554    0.010794
  25 C :   -0.264517    0.000916
  26 H :    0.139706    0.000185
  27 H :    0.139571    0.000183
  28 C :   -0.254794   -0.000232
  29 H :    0.142296    0.000043
  30 H :    0.142272    0.000044
  31 C :   -0.508513   -0.000086
  32 H :    0.157910    0.000025
  33 H :    0.157927    0.000026
  34 C :   -0.541280   -0.047416
  35 H :    0.183880   -0.004059
  36 H :    0.183280    0.001927
  37 H :    0.145187   -0.000171
  38 H :    0.143364   -0.000005
Sum of atomic charges         :    0.0000000

LOEWDIN ATOMIC CHARGES AND SPIN POPULATIONS
-------------------------------------------
   0 C :   -0.063858    0.079657
   1 C :   -0.033650   -0.022533
   2 C :   -0.030176    0.012952
   3 C :   -0.058539    0.162811
   4 C :   -0.067269   -0.069666
   5 C :    0.009866    0.166407
   6 C :   -0.071910   -0.059641
   7 C :   -0.040790    0.175983
   8 C :   -0.008945   -0.064640
   9 H :    0.062724    0.001049
  10 H :    0.064307   -0.000506
  11 C :   -0.008656    0.577553
  12 H :    0.061831    0.003931
  13 C :   -0.087450    0.003581
  14 H :    0.057035    0.025473
  15 H :    0.056969    0.025386
  16 C :   -0.093381    0.000971
  17 H :    0.045166   -0.000066
  18 H :    0.045166   -0.000067
  19 C :   -0.083977   -0.000128
  20 H :    0.036683    0.000216
  21 H :    0.036692    0.000216
  22 C :   -0.048434    0.001663
  23 H :    0.062632    0.008618
  24 H :    0.062627    0.008573
  25 C :   -0.084377    0.000194
  26 H :    0.047123    0.000008
  27 H :    0.047070    0.000009
  28 C :   -0.095806    0.000008
  29 H :    0.043694    0.000062
  30 H :    0.043691    0.000062
  31 C :   -0.084851   -0.000033
  32 H :    0.036475    0.000017
  33 H :    0.036472    0.000017
  34 C :   -0.060608   -0.038221
  35 H :    0.048763    0.000362
  36 H :    0.049086   -0.000188
  37 H :    0.034703   -0.000084
  38 H :    0.033904   -0.000006

  Mayer bond orders larger than 0.100000
B(  0-C ,  1-C ) :   2.6898 B(  0-C , 35-H ) :   0.9871 B(  1-C ,  3-C ) :   0.9294
B(  2-C ,  6-C ) :   0.9097 B(  2-C , 34-C ) :   2.7069 B(  3-C ,  4-C ) :   1.2401
B(  3-C ,  8-C ) :   1.4336 B(  4-C ,  5-C ) :   1.2505 B(  4-C ,  6-C ) :   0.1054
B(  4-C , 11-C ) :   1.2704 B(  5-C ,  6-C ) :   1.4792 B(  5-C ,  9-H ) :   0.9734
B(  5-C , 34-C ) :   0.1010 B(  6-C ,  7-C ) :   1.3160 B(  6-C ,  8-C ) :   0.1045
B(  7-C ,  8-C ) :   1.4297 B(  7-C , 22-C ) :   0.9458 B(  8-C , 10-H ) :   0.9702
B( 11-C , 12-H ) :   0.9882 B( 11-C , 13-C ) :   1.0061 B( 13-C , 14-H ) :   0.9541
B( 13-C , 15-H ) :   0.9540 B( 13-C , 16-C ) :   0.9812 B( 16-C , 17-H ) :   0.9720
B( 16-C , 18-H ) :   0.9720 B( 16-C , 19-C ) :   0.9613 B( 19-C , 20-H ) :   0.9726
B( 19-C , 21-H ) :   0.9726 B( 19-C , 37-H ) :   0.9672 B( 22-C , 23-H ) :   0.9587
B( 22-C , 24-H ) :   0.9587 B( 22-C , 25-C ) :   1.0208 B( 25-C , 26-H ) :   0.9606
B( 25-C , 27-H ) :   0.9604 B( 25-C , 28-C ) :   0.9880 B( 28-C , 29-H ) :   0.9711
B( 28-C , 30-H ) :   0.9710 B( 28-C , 31-C ) :   0.9542 B( 31-C , 32-H ) :   0.9728
B( 31-C , 33-H ) :   0.9728 B( 31-C , 38-H ) :   0.9675 B( 34-C , 36-H ) :   0.9840

FINAL SINGLE POINT ENERGY      -698.028149781176

DIPOLE MOMENT
-------------
                                X             Y             Z
Electronic contribution:      0.60410       2.30572       0.01035
Nuclear contribution   :     -0.70376      -2.24976      -0.00945
                        -----------------------------------------
Total Dipole Moment    :     -0.09966       0.05596       0.00090
                        -----------------------------------------
Magnitude (a.u.)       :      0.11430
Magnitude (Debye)      :      0.29052

Rotational constants in cm-1:     0.022567     0.005964     0.004746
Rotational constants in MHz :   676.555654   178.787891   142.292788

CHEMICAL SHIELDING SUMMARY (ppm)  --  Orbital contribution
----------------------------------------------------------

  Nucleus  Element    Isotropic     Anisotropy
  -------  -------  ------------   ------------
      9       H           51.639         43.905
     10       H           55.481         35.419
     12       H           39.080         10.558
     14       H           62.630         13.817
     15       H           62.756         13.744
     17       H           24.517         18.672
     18       H           24.372         18.695
     20       H           17.179         14.047
     21       H           17.048         14.091
     23       H           51.096         29.093
     24       H           51.108         29.029
     26       H           70.482         12.396
     27       H           70.390         12.382
     29       H           21.489         19.629
     30       H           21.570         19.577
     32       H           22.167         13.012
     33       H           22.224         13.017
     35       H          -49.545        -47.525
     36       H          -50.657        -57.868
     37       H          -65.952         17.782
     38       H          -65.890         15.686

                             ****ORCA TERMINATED NORMALLY****
TOTAL RUN TIME: 0 days 0 hours 35 minutes 44 seconds 586 msec
