                         Program Version 5.0.4 -  RELEASE  -
|  1> ! B3LYP EPR-II AUTOAUX
|  2> %pal nprocs 16 end
|  3> *XYZFile 0 2 opt.xyz
|  4> %EPRNMR
|  5>         GTENSOR   TRUE
|  6>         NUCLEI    = ALL H {SHIFT, AISO, ADIP, AORB}
|  7>         ORI       GIAO
|  8> END
|  9>
| 10>                          ****END OF INPUT****

CARTESIAN COORDINATES (ANGSTROEM)
---------------------------------
  C      3.991788   -0.049240    0.058108
  C      2.775740    0.000818    0.040924
  C     -2.904926    0.001969   -0.021065
  C      1.348501    0.035970    0.024651
  C      0.635243    1.290110    0.014122
  C     -0.786025    1.210124   -0.000914
  C     -1.471080   -0.005896   -0.005830
  C     -0.755051   -1.242724    0.004473
  C      0.640732   -1.178015    0.019328
  H     -1.371296    2.129824   -0.008865
  H      1.223342   -2.098995    0.027465
  C      1.310813    2.530858    0.018832
  H      2.403663    2.505003    0.030818
  C      0.641084    3.872285    0.008661
  H     -0.020408    3.959192   -0.878174
  H     -0.042671    3.961660    0.878176
  C      1.626345    5.048246    0.019383
  H      2.275422    4.965813    0.910219
  H      2.296697    4.963937   -0.855394
  C      0.933467    6.412041    0.009601
  H      0.280768    6.536675    0.890987
  H      0.302265    6.534793   -0.887575
  C     -1.517430   -2.551443   -0.000599
  H     -2.203439   -2.555198    0.867109
  H     -2.188523   -2.557024   -0.879837
  C     -0.686654   -3.837261    0.007762
  H     -0.015119   -3.856287   -0.870392
  H     -0.031197   -3.855470    0.897992
  C     -1.555555   -5.100742    0.000739
  H     -2.229365   -5.083796    0.877444
  H     -2.214538   -5.084219   -0.887176
  C     -0.737137   -6.394159    0.007906
  H     -0.093627   -6.456407    0.902512
  H     -0.079125   -6.457034   -0.876030
  C     -4.120621    0.011732   -0.035488
  H      5.062776   -0.099657    0.078803
  H     -5.192882    0.026348   -0.050615
  H      1.665288    7.235733    0.017560
  H     -1.387506   -7.283908    0.002941

 Total Charge           Charge          ....    0
 Multiplicity           Mult            ....    2
 Number of Electrons    NEL             ....  129
 Basis Dimension        Dim             ....  453

ORBITAL ENERGIES
----------------
                 SPIN UP ORBITALS
  NO   OCC          E(Eh)            E(eV)
   0   1.0000     -10.225933      -278.2618
   1   1.0000     -10.224166      -278.2137
   2   1.0000     -10.213687      -277.9285
   3   1.0000     -10.210619      -277.8451
   4   1.0000     -10.207182      -277.7516
   5   1.0000     -10.205207      -277.6978
   6   1.0000     -10.204212      -277.6707
   7   1.0000     -10.199658      -277.5468
   8   1.0000     -10.199181      -277.5338
   9   1.0000     -10.198462      -277.5143
  10   1.0000     -10.197808      -277.4965
  11   1.0000     -10.190820      -277.3063
  12   1.0000     -10.188768      -277.2505
  13   1.0000     -10.185566      -277.1633
  14   1.0000     -10.182997      -277.0934
  15   1.0000     -10.182570      -277.0818
  16   1.0000     -10.175501      -276.8894
  17   1.0000     -10.173274      -276.8289
  18   1.0000      -0.875737       -23.8300
  19   1.0000      -0.820698       -22.3323
  20   1.0000      -0.798475       -21.7276
  21   1.0000      -0.795174       -21.6378
  22   1.0000      -0.768077       -20.9004
  23   1.0000      -0.754666       -20.5355
  24   1.0000      -0.730858       -19.8876
  25   1.0000      -0.723217       -19.6797
  26   1.0000      -0.697814       -18.9885
  27   1.0000      -0.656897       -17.8751
  28   1.0000      -0.641121       -17.4458
  29   1.0000      -0.617391       -16.8001
  30   1.0000      -0.594556       -16.1787
  31   1.0000      -0.580395       -15.7933
  32   1.0000      -0.563379       -15.3303
  33   1.0000      -0.544055       -14.8045
  34   1.0000      -0.526238       -14.3197
  35   1.0000      -0.500574       -13.6213
  36   1.0000      -0.488000       -13.2792
  37   1.0000      -0.478650       -13.0247
  38   1.0000      -0.470830       -12.8119
  39   1.0000      -0.463051       -12.6003
  40   1.0000      -0.434490       -11.8231
  41   1.0000      -0.430693       -11.7198
  42   1.0000      -0.426361       -11.6019
  43   1.0000      -0.422456       -11.4956
  44   1.0000      -0.412257       -11.2181
  45   1.0000      -0.399357       -10.8671
  46   1.0000      -0.398329       -10.8391
  47   1.0000      -0.381453       -10.3799
  48   1.0000      -0.379958       -10.3392
  49   1.0000      -0.365633        -9.9494
  50   1.0000      -0.358187        -9.7468
  51   1.0000      -0.355167        -9.6646
  52   1.0000      -0.340556        -9.2670
  53   1.0000      -0.333066        -9.0632
  54   1.0000      -0.332413        -9.0454
  55   1.0000      -0.331269        -9.0143
  56   1.0000      -0.327699        -8.9171
  57   1.0000      -0.324120        -8.8198
  58   1.0000      -0.321142        -8.7387
  59   1.0000      -0.287061        -7.8113
  60   1.0000      -0.278690        -7.5835
  61   1.0000      -0.277054        -7.5390
  62   1.0000      -0.272091        -7.4040
  63   1.0000      -0.232841        -6.3359
  64   1.0000      -0.175546        -4.7769
  65   0.0000      -0.051440        -1.3998
  66   0.0000       0.008179         0.2226
  67   0.0000       0.018714         0.5092
  68   0.0000       0.021118         0.5747
  69   0.0000       0.024388         0.6636

                 SPIN DOWN ORBITALS
  NO   OCC          E(Eh)            E(eV)
   0   1.0000     -10.225777      -278.2575
   1   1.0000     -10.222521      -278.1689
   2   1.0000     -10.213042      -277.9110
   3   1.0000     -10.210238      -277.8347
   4   1.0000     -10.206787      -277.7408
   5   1.0000     -10.206001      -277.7194
   6   1.0000     -10.201146      -277.5873
   7   1.0000     -10.200763      -277.5769
   8   1.0000     -10.199080      -277.5311
   9   1.0000     -10.196524      -277.4615
  10   1.0000     -10.191488      -277.3245
  11   1.0000     -10.189749      -277.2772
  12   1.0000     -10.188966      -277.2559
  13   1.0000     -10.185529      -277.1623
  14   1.0000     -10.182995      -277.0934
  15   1.0000     -10.182571      -277.0818
  16   1.0000     -10.175509      -276.8897
  17   1.0000     -10.173275      -276.8289
  18   1.0000      -0.872319       -23.7370
  19   1.0000      -0.815692       -22.1961
  20   1.0000      -0.795933       -21.6584
  21   1.0000      -0.793522       -21.5928
  22   1.0000      -0.766119       -20.8472
  23   1.0000      -0.753903       -20.5147
  24   1.0000      -0.726660       -19.7734
  25   1.0000      -0.721796       -19.6411
  26   1.0000      -0.695452       -18.9242
  27   1.0000      -0.653784       -17.7904
  28   1.0000      -0.639243       -17.3947
  29   1.0000      -0.611889       -16.6503
  30   1.0000      -0.593585       -16.1523
  31   1.0000      -0.578796       -15.7498
  32   1.0000      -0.560963       -15.2646
  33   1.0000      -0.542743       -14.7688
  34   1.0000      -0.523841       -14.2544
  35   1.0000      -0.498212       -13.5570
  36   1.0000      -0.486555       -13.2398
  37   1.0000      -0.477203       -12.9854
  38   1.0000      -0.469929       -12.7874
  39   1.0000      -0.459539       -12.5047
  40   1.0000      -0.432773       -11.7763
  41   1.0000      -0.428765       -11.6673
  42   1.0000      -0.425074       -11.5669
  43   1.0000      -0.419740       -11.4217
  44   1.0000      -0.411819       -11.2062
  45   1.0000      -0.397203       -10.8085
  46   1.0000      -0.391576       -10.6553
  47   1.0000      -0.377641       -10.2761
  48   1.0000      -0.377525       -10.2730
  49   1.0000      -0.364417        -9.9163
  50   1.0000      -0.357192        -9.7197
  51   1.0000      -0.351960        -9.5773
  52   1.0000      -0.338154        -9.2016
  53   1.0000      -0.332570        -9.0497
  54   1.0000      -0.330625        -8.9968
  55   1.0000      -0.328953        -8.9513
  56   1.0000      -0.327349        -8.9076
  57   1.0000      -0.323438        -8.8012
  58   1.0000      -0.320550        -8.7226
  59   1.0000      -0.281868        -7.6700
  60   1.0000      -0.278635        -7.5820
  61   1.0000      -0.276415        -7.5216
  62   1.0000      -0.259401        -7.0586
  63   1.0000      -0.224938        -6.1209
  64   0.0000      -0.085903        -2.3375
  65   0.0000      -0.042573        -1.1585
  66   0.0000       0.019062         0.5187
  67   0.0000       0.021328         0.5804
  68   0.0000       0.023997         0.6530

MULLIKEN ATOMIC CHARGES AND SPIN POPULATIONS
--------------------------------------------
   0 C :   -0.540669    0.099448
   1 C :   -0.008341   -0.052378
   2 C :    0.003022    0.024872
   3 C :    0.359242    0.202955
   4 C :    0.451309   -0.134267
   5 C :   -0.455496    0.209493
   6 C :    0.426364   -0.093502
   7 C :    0.302724    0.222761
   8 C :   -0.397265   -0.109541
   9 H :    0.130714   -0.011376
  10 H :    0.133119    0.005106
  11 C :   -0.293102    0.698373
  12 H :    0.133597   -0.036481
  13 C :   -0.266927   -0.046064
  14 H :    0.150706    0.031192
  15 H :    0.150494    0.031101
  16 C :   -0.283543    0.002196
  17 H :    0.153634   -0.000173
  18 H :    0.153622   -0.000173
  19 C :   -0.506782   -0.000765
  20 H :    0.157336    0.000177
  21 H :    0.157344    0.000177
  22 C :   -0.384580   -0.016525
  23 H :    0.153675    0.010844
  24 H :    0.153546    0.010784
  25 C :   -0.264500    0.000914
  26 H :    0.139703    0.000185
  27 H :    0.139569    0.000183
  28 C :   -0.254806   -0.000230
  29 H :    0.142294    0.000043
  30 H :    0.142270    0.000044
  31 C :   -0.508527   -0.000086
  32 H :    0.157916    0.000025
  33 H :    0.157933    0.000026
  34 C :   -0.541347   -0.047017
  35 H :    0.183894   -0.004030
  36 H :    0.183297    0.001885
  37 H :    0.145192   -0.000170
  38 H :    0.143367   -0.000005
Sum of atomic charges         :   -0.0000000

LOEWDIN ATOMIC CHARGES AND SPIN POPULATIONS
-------------------------------------------
   0 C :   -0.063838    0.079453
   1 C :   -0.033697   -0.022368
   2 C :   -0.030173    0.012708
   3 C :   -0.058552    0.162681
   4 C :   -0.067206   -0.069604
   5 C :    0.009881    0.166286
   6 C :   -0.071975   -0.059513
   7 C :   -0.040722    0.175823
   8 C :   -0.008909   -0.064519
   9 H :    0.062719    0.001058
  10 H :    0.064300   -0.000510
  11 C :   -0.008671    0.577644
  12 H :    0.061825    0.003929
  13 C :   -0.087453    0.003577
  14 H :    0.057033    0.025477
  15 H :    0.056967    0.025391
  16 C :   -0.093379    0.000971
  17 H :    0.045166   -0.000067
  18 H :    0.045166   -0.000067
  19 C :   -0.083991   -0.000128
  20 H :    0.036685    0.000216
  21 H :    0.036695    0.000216
  22 C :   -0.048438    0.001675
  23 H :    0.062628    0.008613
  24 H :    0.062623    0.008567
  25 C :   -0.084370    0.000193
  26 H :    0.047123    0.000009
  27 H :    0.047070    0.000009
  28 C :   -0.095805    0.000008
  29 H :    0.043693    0.000062
  30 H :    0.043690    0.000062
  31 C :   -0.084865   -0.000033
  32 H :    0.036478    0.000017
  33 H :    0.036474    0.000017
  34 C :   -0.060648   -0.037935
  35 H :    0.048771    0.000370
  36 H :    0.049092   -0.000199
  37 H :    0.034706   -0.000084
  38 H :    0.033906   -0.000006

  Mayer bond orders larger than 0.100000
B(  0-C ,  1-C ) :   2.6898 B(  0-C , 35-H ) :   0.9871 B(  1-C ,  3-C ) :   0.9295
B(  2-C ,  6-C ) :   0.9097 B(  2-C , 34-C ) :   2.7069 B(  3-C ,  4-C ) :   1.2401
B(  3-C ,  8-C ) :   1.4336 B(  4-C ,  5-C ) :   1.2506 B(  4-C ,  6-C ) :   0.1054
B(  4-C , 11-C ) :   1.2703 B(  5-C ,  6-C ) :   1.4792 B(  5-C ,  9-H ) :   0.9734
B(  5-C , 34-C ) :   0.1010 B(  6-C ,  7-C ) :   1.3160 B(  6-C ,  8-C ) :   0.1045
B(  7-C ,  8-C ) :   1.4297 B(  7-C , 22-C ) :   0.9458 B(  8-C , 10-H ) :   0.9702
B( 11-C , 12-H ) :   0.9882 B( 11-C , 13-C ) :   1.0061 B( 13-C , 14-H ) :   0.9541
B( 13-C , 15-H ) :   0.9540 B( 13-C , 16-C ) :   0.9812 B( 16-C , 17-H ) :   0.9720
B( 16-C , 18-H ) :   0.9720 B( 16-C , 19-C ) :   0.9614 B( 19-C , 20-H ) :   0.9726
B( 19-C , 21-H ) :   0.9726 B( 19-C , 37-H ) :   0.9671 B( 22-C , 23-H ) :   0.9587
B( 22-C , 24-H ) :   0.9587 B( 22-C , 25-C ) :   1.0208 B( 25-C , 26-H ) :   0.9606
B( 25-C , 27-H ) :   0.9604 B( 25-C , 28-C ) :   0.9880 B( 28-C , 29-H ) :   0.9711
B( 28-C , 30-H ) :   0.9710 B( 28-C , 31-C ) :   0.9542 B( 31-C , 32-H ) :   0.9728
B( 31-C , 33-H ) :   0.9728 B( 31-C , 38-H ) :   0.9675 B( 34-C , 36-H ) :   0.9840

FINAL SINGLE POINT ENERGY      -698.028149002013

DIPOLE MOMENT
-------------
                                X             Y             Z
Electronic contribution:      0.60449       2.30556       0.01035
Nuclear contribution   :     -0.70376      -2.24976      -0.00945
                        -----------------------------------------
Total Dipole Moment    :     -0.09927       0.05580       0.00090
                        -----------------------------------------
Magnitude (a.u.)       :      0.11388
Magnitude (Debye)      :      0.28947

Rotational constants in cm-1:     0.022567     0.005964     0.004746
Rotational constants in MHz :   676.555654   178.787891   142.292788

CHEMICAL SHIELDING SUMMARY (ppm)  --  Orbital contribution
----------------------------------------------------------

  Nucleus  Element    Isotropic     Anisotropy
  -------  -------  ------------   ------------
      9       H           24.401         11.690
     10       H           24.496         12.606
     12       H           25.412         11.926
     14       H           29.217          4.456
     15       H           29.217          4.457
     17       H           29.927          6.773
     18       H           29.926          6.777
     20       H           30.765          8.018
     21       H           30.764          8.018
     23       H           28.913          5.732
     24       H           28.911          5.766
     26       H           30.079          4.792
     27       H           30.075          4.806
     29       H           30.166          6.456
     30       H           30.166          6.457
     32       H           30.733          8.027
     33       H           30.733          8.025
     35       H           28.291         10.095
     36       H           28.516         10.779
     37       H           30.487         10.067
     38       H           30.500         10.268

                             ****ORCA TERMINATED NORMALLY****
TOTAL RUN TIME: 0 days 0 hours 36 minutes 53 seconds 730 msec
