                         Program Version 5.0.4 -  RELEASE  -
|  1> ! B3LYP EPR-II AUTOAUX
|  2> %pal nprocs 16 end
|  3> *XYZFile 0 2 opt_EPRII.xyz
|  4> %EPRNMR
|  5>         GTENSOR   TRUE
|  6>         NUCLEI    = ALL H {SHIFT, AISO, ADIP, AORB}
|  7>         ORI       CenterOfElCharge
|  8> END
|  9>
| 10>                          ****END OF INPUT****

CARTESIAN COORDINATES (ANGSTROEM)
---------------------------------
  C      3.996663   -0.031218    0.044752
  C      2.775587    0.000837    0.030796
  C     -2.914081    0.003186   -0.025068
  C      1.345454    0.033471    0.016926
  C      0.632487    1.290820    0.007787
  C     -0.792597    1.215399   -0.006488
  C     -1.477264   -0.004790   -0.010752
  C     -0.762282   -1.245481   -0.000761
  C      0.637393   -1.184004    0.012603
  H     -1.372313    2.131631   -0.014119
  H      1.214679   -2.101341    0.020115
  C      1.314108    2.532726    0.013254
  H      2.400505    2.507570    0.024443
  C      0.642962    3.880406    0.004222
  H     -0.000515    3.974298   -0.885220
  H     -0.037269    3.967932    0.866399
  C      1.638335    5.055380    0.029627
  H      2.271002    4.969828    0.922261
  H      2.308626    4.976572   -0.835798
  C      0.943022    6.426885    0.019914
  H      0.288848    6.543405    0.891447
  H      0.326096    6.549720   -0.877540
  C     -1.528922   -2.557006   -0.004981
  H     -2.208454   -2.560921    0.858404
  H     -2.187947   -2.567439   -0.884119
  C     -0.688976   -3.843704    0.009649
  H     -0.022983   -3.865865   -0.863312
  H     -0.043357   -3.859068    0.897946
  C     -1.561044   -5.112275    0.004530
  H     -2.229709   -5.094934    0.875438
  H     -2.208947   -5.102064   -0.882046
  C     -0.733534   -6.409242    0.019529
  H     -0.099518   -6.461256    0.911868
  H     -0.078322   -6.468033   -0.856930
  C     -4.134149    0.002357   -0.038222
  H      5.061947   -0.064523    0.059320
  H     -5.200021    0.007760   -0.050701
  H      1.673164    7.242384    0.038150
  H     -1.378912   -7.293742    0.015239

 Total Charge           Charge          ....    0
 Multiplicity           Mult            ....    2
 Number of Electrons    NEL             ....  129
 Basis Dimension        Dim             ....  453

ORBITAL ENERGIES
----------------
                 SPIN UP ORBITALS
  NO   OCC          E(Eh)            E(eV)
   0   1.0000     -10.226964      -278.2898
   1   1.0000     -10.225191      -278.2416
   2   1.0000     -10.214700      -277.9561
   3   1.0000     -10.211717      -277.8750
   4   1.0000     -10.208207      -277.7794
   5   1.0000     -10.206274      -277.7268
   6   1.0000     -10.204743      -277.6852
   7   1.0000     -10.199757      -277.5495
   8   1.0000     -10.199710      -277.5482
   9   1.0000     -10.198666      -277.5198
  10   1.0000     -10.198185      -277.5067
  11   1.0000     -10.189714      -277.2762
  12   1.0000     -10.187885      -277.2264
  13   1.0000     -10.184290      -277.1286
  14   1.0000     -10.181855      -277.0624
  15   1.0000     -10.181273      -277.0465
  16   1.0000     -10.173319      -276.8301
  17   1.0000     -10.171071      -276.7689
  18   1.0000      -0.874252       -23.7896
  19   1.0000      -0.819466       -22.2988
  20   1.0000      -0.797463       -21.7001
  21   1.0000      -0.794170       -21.6105
  22   1.0000      -0.767263       -20.8783
  23   1.0000      -0.753657       -20.5081
  24   1.0000      -0.730374       -19.8745
  25   1.0000      -0.722603       -19.6630
  26   1.0000      -0.697820       -18.9887
  27   1.0000      -0.657279       -17.8855
  28   1.0000      -0.640777       -17.4364
  29   1.0000      -0.618551       -16.8316
  30   1.0000      -0.595631       -16.2080
  31   1.0000      -0.582071       -15.8390
  32   1.0000      -0.564831       -15.3698
  33   1.0000      -0.545198       -14.8356
  34   1.0000      -0.527289       -14.3483
  35   1.0000      -0.500784       -13.6270
  36   1.0000      -0.487986       -13.2788
  37   1.0000      -0.478095       -13.0096
  38   1.0000      -0.471759       -12.8372
  39   1.0000      -0.464133       -12.6297
  40   1.0000      -0.434962       -11.8359
  41   1.0000      -0.430107       -11.7038
  42   1.0000      -0.426079       -11.5942
  43   1.0000      -0.423419       -11.5218
  44   1.0000      -0.412547       -11.2260
  45   1.0000      -0.400266       -10.8918
  46   1.0000      -0.397741       -10.8231
  47   1.0000      -0.382179       -10.3996
  48   1.0000      -0.380130       -10.3439
  49   1.0000      -0.365706        -9.9514
  50   1.0000      -0.357959        -9.7405
  51   1.0000      -0.356808        -9.7092
  52   1.0000      -0.339235        -9.2311
  53   1.0000      -0.333808        -9.0834
  54   1.0000      -0.333026        -9.0621
  55   1.0000      -0.332499        -9.0478
  56   1.0000      -0.327705        -8.9173
  57   1.0000      -0.323167        -8.7938
  58   1.0000      -0.323049        -8.7906
  59   1.0000      -0.286655        -7.8003
  60   1.0000      -0.278048        -7.5661
  61   1.0000      -0.276510        -7.5242
  62   1.0000      -0.272061        -7.4032
  63   1.0000      -0.232599        -6.3293
  64   1.0000      -0.175971        -4.7884
  65   0.0000      -0.052042        -1.4161
  66   0.0000       0.007178         0.1953
  67   0.0000       0.018618         0.5066
  68   0.0000       0.021379         0.5818
  69   0.0000       0.024587         0.6690

                 SPIN DOWN ORBITALS
  NO   OCC          E(Eh)            E(eV)
   0   1.0000     -10.226832      -278.2862
   1   1.0000     -10.223529      -278.1964
   2   1.0000     -10.214169      -277.9417
   3   1.0000     -10.211223      -277.8615
   4   1.0000     -10.207777      -277.7677
   5   1.0000     -10.207102      -277.7494
   6   1.0000     -10.201645      -277.6009
   7   1.0000     -10.201318      -277.5920
   8   1.0000     -10.199323      -277.5377
   9   1.0000     -10.196865      -277.4708
  10   1.0000     -10.190386      -277.2945
  11   1.0000     -10.189802      -277.2786
  12   1.0000     -10.188081      -277.2318
  13   1.0000     -10.184254      -277.1276
  14   1.0000     -10.181853      -277.0623
  15   1.0000     -10.181275      -277.0466
  16   1.0000     -10.173328      -276.8303
  17   1.0000     -10.171072      -276.7690
  18   1.0000      -0.870840       -23.6967
  19   1.0000      -0.814486       -22.1633
  20   1.0000      -0.794984       -21.6326
  21   1.0000      -0.792457       -21.5638
  22   1.0000      -0.765310       -20.8252
  23   1.0000      -0.752891       -20.4872
  24   1.0000      -0.726225       -19.7616
  25   1.0000      -0.721165       -19.6239
  26   1.0000      -0.695503       -18.9256
  27   1.0000      -0.654141       -17.8001
  28   1.0000      -0.638908       -17.3856
  29   1.0000      -0.612984       -16.6801
  30   1.0000      -0.594695       -16.1825
  31   1.0000      -0.580468       -15.7953
  32   1.0000      -0.562314       -15.3013
  33   1.0000      -0.543890       -14.8000
  34   1.0000      -0.524981       -14.2855
  35   1.0000      -0.498344       -13.5606
  36   1.0000      -0.486534       -13.2393
  37   1.0000      -0.476614       -12.9693
  38   1.0000      -0.470877       -12.8132
  39   1.0000      -0.460708       -12.5365
  40   1.0000      -0.433650       -11.8002
  41   1.0000      -0.427730       -11.6391
  42   1.0000      -0.424815       -11.5598
  43   1.0000      -0.420863       -11.4523
  44   1.0000      -0.412162       -11.2155
  45   1.0000      -0.396583       -10.7916
  46   1.0000      -0.392718       -10.6864
  47   1.0000      -0.378207       -10.2915
  48   1.0000      -0.377809       -10.2807
  49   1.0000      -0.364489        -9.9182
  50   1.0000      -0.357001        -9.7145
  51   1.0000      -0.353676        -9.6240
  52   1.0000      -0.336818        -9.1653
  53   1.0000      -0.332556        -9.0493
  54   1.0000      -0.332064        -9.0359
  55   1.0000      -0.330304        -8.9880
  56   1.0000      -0.327338        -8.9073
  57   1.0000      -0.322419        -8.7735
  58   1.0000      -0.322360        -8.7719
  59   1.0000      -0.281237        -7.6529
  60   1.0000      -0.278003        -7.5648
  61   1.0000      -0.275871        -7.5068
  62   1.0000      -0.259402        -7.0587
  63   1.0000      -0.224702        -6.1145
  64   0.0000      -0.086027        -2.3409
  65   0.0000      -0.043183        -1.1751
  66   0.0000       0.018954         0.5158
  67   0.0000       0.021601         0.5878
  68   0.0000       0.023083         0.6281

MULLIKEN ATOMIC CHARGES AND SPIN POPULATIONS
--------------------------------------------
   0 C :   -0.536542    0.101286
   1 C :   -0.012541   -0.053891
   2 C :   -0.003072    0.026470
   3 C :    0.354727    0.204405
   4 C :    0.446751   -0.136666
   5 C :   -0.450770    0.211524
   6 C :    0.424509   -0.095378
   7 C :    0.294406    0.224872
   8 C :   -0.391889   -0.111462
   9 H :    0.132753   -0.011396
  10 H :    0.135052    0.005170
  11 C :   -0.296317    0.702040
  12 H :    0.135280   -0.036370
  13 C :   -0.271043   -0.045331
  14 H :    0.153631    0.029882
  15 H :    0.152773    0.029303
  16 C :   -0.291174    0.002135
  17 H :    0.156577   -0.000155
  18 H :    0.156221   -0.000145
  19 C :   -0.509706   -0.000785
  20 H :    0.159496    0.000167
  21 H :    0.159478    0.000167
  22 C :   -0.387087   -0.016410
  23 H :    0.156126    0.010359
  24 H :    0.156223    0.010417
  25 C :   -0.270235    0.000907
  26 H :    0.142445    0.000177
  27 H :    0.142664    0.000179
  28 C :   -0.263453   -0.000240
  29 H :    0.145238    0.000043
  30 H :    0.145245    0.000043
  31 C :   -0.511262   -0.000086
  32 H :    0.160066    0.000023
  33 H :    0.160034    0.000023
  34 C :   -0.536221   -0.049006
  35 H :    0.185188   -0.004085
  36 H :    0.184569    0.001985
  37 H :    0.146842   -0.000167
  38 H :    0.145017   -0.000005
Sum of atomic charges         :    0.0000000

LOEWDIN ATOMIC CHARGES AND SPIN POPULATIONS
-------------------------------------------
   0 C :   -0.062226    0.080914
   1 C :   -0.032276   -0.023598
   2 C :   -0.029000    0.013840
   3 C :   -0.057923    0.163806
   4 C :   -0.065717   -0.071496
   5 C :    0.011031    0.167853
   6 C :   -0.071080   -0.060838
   7 C :   -0.039156    0.177369
   8 C :   -0.007601   -0.066062
   9 H :    0.060388    0.001206
  10 H :    0.061876   -0.000591
  11 C :   -0.005773    0.580693
  12 H :    0.058901    0.004549
  13 C :   -0.082474    0.003532
  14 H :    0.054563    0.024534
  15 H :    0.054273    0.024013
  16 C :   -0.087352    0.000942
  17 H :    0.042512   -0.000048
  18 H :    0.042429   -0.000049
  19 C :   -0.077787   -0.000165
  20 H :    0.034317    0.000200
  21 H :    0.034325    0.000202
  22 C :   -0.044248    0.001650
  23 H :    0.060132    0.008257
  24 H :    0.060140    0.008298
  25 C :   -0.079523    0.000194
  26 H :    0.044626    0.000009
  27 H :    0.044695    0.000008
  28 C :   -0.089926   -0.000006
  29 H :    0.041098    0.000059
  30 H :    0.041100    0.000059
  31 C :   -0.078644   -0.000035
  32 H :    0.034123    0.000015
  33 H :    0.034122    0.000015
  34 C :   -0.058841   -0.039464
  35 H :    0.045242    0.000457
  36 H :    0.045529   -0.000233
  37 H :    0.032454   -0.000084
  38 H :    0.031669   -0.000006

  Mayer bond orders larger than 0.100000
B(  0-C ,  1-C ) :   2.6945 B(  0-C , 35-H ) :   0.9859 B(  1-C ,  3-C ) :   0.9283
B(  2-C ,  6-C ) :   0.9068 B(  2-C , 34-C ) :   2.7125 B(  3-C ,  4-C ) :   1.2376
B(  3-C ,  8-C ) :   1.4323 B(  4-C ,  5-C ) :   1.2532 B(  4-C ,  6-C ) :   0.1013
B(  4-C , 11-C ) :   1.2692 B(  5-C ,  6-C ) :   1.4770 B(  5-C ,  9-H ) :   0.9724
B(  6-C ,  7-C ) :   1.3140 B(  6-C ,  8-C ) :   0.1019 B(  7-C ,  8-C ) :   1.4298
B(  7-C , 22-C ) :   0.9453 B(  8-C , 10-H ) :   0.9689 B( 11-C , 12-H ) :   0.9874
B( 11-C , 13-C ) :   1.0037 B( 13-C , 14-H ) :   0.9553 B( 13-C , 15-H ) :   0.9549
B( 13-C , 16-C ) :   0.9806 B( 16-C , 17-H ) :   0.9725 B( 16-C , 18-H ) :   0.9720
B( 16-C , 19-C ) :   0.9615 B( 19-C , 20-H ) :   0.9726 B( 19-C , 21-H ) :   0.9727
B( 19-C , 37-H ) :   0.9673 B( 22-C , 23-H ) :   0.9590 B( 22-C , 24-H ) :   0.9590
B( 22-C , 25-C ) :   1.0194 B( 25-C , 26-H ) :   0.9613 B( 25-C , 27-H ) :   0.9614
B( 25-C , 28-C ) :   0.9861 B( 28-C , 29-H ) :   0.9716 B( 28-C , 30-H ) :   0.9717
B( 28-C , 31-C ) :   0.9545 B( 31-C , 32-H ) :   0.9729 B( 31-C , 33-H ) :   0.9729
B( 31-C , 38-H ) :   0.9677 B( 34-C , 36-H ) :   0.9830

FINAL SINGLE POINT ENERGY      -698.029117917029

DIPOLE MOMENT
-------------
                                X             Y             Z
Electronic contribution:      0.54062       2.30652      -0.06999
Nuclear contribution   :     -0.63697      -2.24804       0.07068
                        -----------------------------------------
Total Dipole Moment    :     -0.09635       0.05848       0.00068
                        -----------------------------------------
Magnitude (a.u.)       :      0.11271
Magnitude (Debye)      :      0.28649

Rotational constants in cm-1:     0.022511     0.005937     0.004727
Rotational constants in MHz :   674.872210   177.979418   141.699834

CHEMICAL SHIELDING SUMMARY (ppm)  --  Orbital contribution
----------------------------------------------------------

  Nucleus  Element    Isotropic     Anisotropy
  -------  -------  ------------   ------------
      9       H           51.132         44.083
     10       H           55.157         34.844
     12       H           38.773         10.459
     14       H           62.086         14.227
     15       H           63.102         13.689
     17       H           24.997         18.853
     18       H           23.927         18.922
     20       H           18.200         13.706
     21       H           17.311         14.054
     23       H           50.987         29.246
     24       H           50.813         29.313
     26       H           70.499         12.458
     27       H           70.700         12.417
     29       H           21.462         19.813
     30       H           21.278         19.877
     32       H           23.183         12.742
     33       H           23.052         12.769
     35       H          -50.522        -52.703
     36       H          -51.800        -61.783
     37       H          -66.309         18.699
     38       H          -66.359         16.492

                             ****ORCA TERMINATED NORMALLY****
TOTAL RUN TIME: 0 days 0 hours 35 minutes 32 seconds 867 msec
