                         Program Version 5.0.4 -  RELEASE  -
|  1> ! B3LYP cc-pVDZ OPT
|  2> %pal nprocs 16 end
|  3> *XYZFile 0 2 model.xyz
|  4>
|  5>                          ****END OF INPUT****
 Total Charge           Charge          ....    0
 Multiplicity           Mult            ....    2
 Number of Electrons    NEL             ....  129
FINAL SINGLE POINT ENERGY      -697.967709288983
                    ***********************HURRAY********************

CARTESIAN COORDINATES (ANGSTROEM)
---------------------------------
  C      3.991788   -0.049240    0.058108
  C      2.775740    0.000818    0.040924
  C     -2.904926    0.001969   -0.021065
  C      1.348501    0.035970    0.024651
  C      0.635243    1.290110    0.014122
  C     -0.786025    1.210124   -0.000914
  C     -1.471080   -0.005896   -0.005830
  C     -0.755051   -1.242724    0.004473
  C      0.640732   -1.178015    0.019328
  H     -1.371296    2.129824   -0.008865
  H      1.223342   -2.098995    0.027465
  C      1.310813    2.530858    0.018832
  H      2.403663    2.505003    0.030818
  C      0.641084    3.872285    0.008661
  H     -0.020408    3.959192   -0.878174
  H     -0.042671    3.961660    0.878176
  C      1.626345    5.048246    0.019383
  H      2.275422    4.965813    0.910219
  H      2.296697    4.963937   -0.855394
  C      0.933467    6.412041    0.009601
  H      0.280768    6.536675    0.890987
  H      0.302265    6.534793   -0.887575
  C     -1.517430   -2.551443   -0.000599
  H     -2.203439   -2.555198    0.867109
  H     -2.188523   -2.557024   -0.879837
  C     -0.686654   -3.837261    0.007762
  H     -0.015119   -3.856287   -0.870392
  H     -0.031197   -3.855470    0.897992
  C     -1.555555   -5.100742    0.000739
  H     -2.229365   -5.083796    0.877444
  H     -2.214538   -5.084219   -0.887176
  C     -0.737137   -6.394159    0.007906
  H     -0.093627   -6.456407    0.902512
  H     -0.079125   -6.457034   -0.876030
  C     -4.120621    0.011732   -0.035488
  H      5.062776   -0.099657    0.078803
  H     -5.192882    0.026348   -0.050615
  H      1.665288    7.235733    0.017560
  H     -1.387506   -7.283908    0.002941

 Multiplicity           Mult            ....    2
 Number of Electrons    NEL             ....  129
 Basis Dimension        Dim             ....  357

ORBITAL ENERGIES
----------------
                 SPIN UP ORBITALS
  NO   OCC          E(Eh)            E(eV)
   0   1.0000     -10.215423      -277.9758
   1   1.0000     -10.213422      -277.9213
   2   1.0000     -10.204195      -277.6703
   3   1.0000     -10.200076      -277.5582
   4   1.0000     -10.196627      -277.4643
   5   1.0000     -10.193584      -277.3815
   6   1.0000     -10.192786      -277.3598
   7   1.0000     -10.191758      -277.3318
   8   1.0000     -10.190846      -277.3070
   9   1.0000     -10.188913      -277.2544
  10   1.0000     -10.187446      -277.2145
  11   1.0000     -10.187360      -277.2122
  12   1.0000     -10.186655      -277.1930
  13   1.0000     -10.184311      -277.1292
  14   1.0000     -10.182161      -277.0707
  15   1.0000     -10.181845      -277.0621
  16   1.0000     -10.177400      -276.9411
  17   1.0000     -10.175643      -276.8933
  18   1.0000      -0.875636       -23.8273
  19   1.0000      -0.821132       -22.3441
  20   1.0000      -0.798427       -21.7263
  21   1.0000      -0.796397       -21.6711
  22   1.0000      -0.769050       -20.9269
  23   1.0000      -0.752770       -20.4839
  24   1.0000      -0.731756       -19.9121
  25   1.0000      -0.721398       -19.6302
  26   1.0000      -0.698772       -19.0146
  27   1.0000      -0.657582       -17.8937
  28   1.0000      -0.640119       -17.4185
  29   1.0000      -0.618005       -16.8168
  30   1.0000      -0.594661       -16.1815
  31   1.0000      -0.580851       -15.8058
  32   1.0000      -0.563305       -15.3283
  33   1.0000      -0.542227       -14.7547
  34   1.0000      -0.524589       -14.2748
  35   1.0000      -0.499446       -13.5906
  36   1.0000      -0.486885       -13.2488
  37   1.0000      -0.478514       -13.0210
  38   1.0000      -0.471036       -12.8175
  39   1.0000      -0.462828       -12.5942
  40   1.0000      -0.434239       -11.8162
  41   1.0000      -0.430630       -11.7180
  42   1.0000      -0.426757       -11.6126
  43   1.0000      -0.422409       -11.4943
  44   1.0000      -0.412563       -11.2264
  45   1.0000      -0.399074       -10.8594
  46   1.0000      -0.398521       -10.8443
  47   1.0000      -0.381061       -10.3692
  48   1.0000      -0.379751       -10.3335
  49   1.0000      -0.365975        -9.9587
  50   1.0000      -0.358151        -9.7458
  51   1.0000      -0.354920        -9.6579
  52   1.0000      -0.341094        -9.2817
  53   1.0000      -0.333281        -9.0690
  54   1.0000      -0.331662        -9.0250
  55   1.0000      -0.331054        -9.0084
  56   1.0000      -0.328150        -8.9294
  57   1.0000      -0.325097        -8.8464
  58   1.0000      -0.321411        -8.7460
  59   1.0000      -0.285600        -7.7716
  60   1.0000      -0.276502        -7.5240
  61   1.0000      -0.274880        -7.4799
  62   1.0000      -0.271294        -7.3823
  63   1.0000      -0.231125        -6.2892
  64   1.0000      -0.174674        -4.7531
  65   0.0000      -0.048345        -1.3155
  66   0.0000       0.010915         0.2970
  67   0.0000       0.040501         1.1021
  68   0.0000       0.049405         1.3444
  69   0.0000       0.052825         1.4374

                 SPIN DOWN ORBITALS
  NO   OCC          E(Eh)            E(eV)
   0   1.0000     -10.215056      -277.9658
   1   1.0000     -10.211990      -277.8824
   2   1.0000     -10.202531      -277.6250
   3   1.0000     -10.200725      -277.5758
   4   1.0000     -10.193530      -277.3801
   5   1.0000     -10.193366      -277.3756
   6   1.0000     -10.192392      -277.3491
   7   1.0000     -10.191623      -277.3282
   8   1.0000     -10.189594      -277.2729
   9   1.0000     -10.187987      -277.2292
  10   1.0000     -10.187652      -277.2201
  11   1.0000     -10.185361      -277.1578
  12   1.0000     -10.184272      -277.1281
  13   1.0000     -10.183572      -277.1091
  14   1.0000     -10.182158      -277.0706
  15   1.0000     -10.181845      -277.0621
  16   1.0000     -10.177408      -276.9413
  17   1.0000     -10.175645      -276.8934
  18   1.0000      -0.872207       -23.7340
  19   1.0000      -0.816059       -22.2061
  20   1.0000      -0.795802       -21.6549
  21   1.0000      -0.794988       -21.6327
  22   1.0000      -0.767003       -20.8712
  23   1.0000      -0.751902       -20.4603
  24   1.0000      -0.727647       -19.8003
  25   1.0000      -0.719935       -19.5904
  26   1.0000      -0.696401       -18.9500
  27   1.0000      -0.654517       -17.8103
  28   1.0000      -0.638242       -17.3675
  29   1.0000      -0.612414       -16.6646
  30   1.0000      -0.593701       -16.1554
  31   1.0000      -0.579278       -15.7630
  32   1.0000      -0.560774       -15.2594
  33   1.0000      -0.540934       -14.7196
  34   1.0000      -0.522045       -14.2056
  35   1.0000      -0.497255       -13.5310
  36   1.0000      -0.485442       -13.2095
  37   1.0000      -0.477134       -12.9835
  38   1.0000      -0.470156       -12.7936
  39   1.0000      -0.459317       -12.4987
  40   1.0000      -0.432163       -11.7598
  41   1.0000      -0.429165       -11.6782
  42   1.0000      -0.425520       -11.5790
  43   1.0000      -0.419694       -11.4205
  44   1.0000      -0.412084       -11.2134
  45   1.0000      -0.397417       -10.8143
  46   1.0000      -0.391220       -10.6456
  47   1.0000      -0.377457       -10.2711
  48   1.0000      -0.377173       -10.2634
  49   1.0000      -0.364803        -9.9268
  50   1.0000      -0.357148        -9.7185
  51   1.0000      -0.351749        -9.5716
  52   1.0000      -0.338789        -9.2189
  53   1.0000      -0.332766        -9.0550
  54   1.0000      -0.330030        -8.9806
  55   1.0000      -0.328651        -8.9430
  56   1.0000      -0.327806        -8.9200
  57   1.0000      -0.324338        -8.8257
  58   1.0000      -0.320677        -8.7261
  59   1.0000      -0.280071        -7.6211
  60   1.0000      -0.276466        -7.5230
  61   1.0000      -0.274223        -7.4620
  62   1.0000      -0.258905        -7.0452
  63   1.0000      -0.223133        -6.0718
  64   0.0000      -0.084273        -2.2932
  65   0.0000      -0.039297        -1.0693
  66   0.0000       0.026997         0.7346
  67   0.0000       0.040901         1.1130
  68   0.0000       0.049710         1.3527

MULLIKEN ATOMIC CHARGES AND SPIN POPULATIONS
--------------------------------------------
   0 C :   -0.600608    0.102475
   1 C :    0.632257   -0.061111
   2 C :    0.625306    0.029726
   3 C :   -0.049505    0.228873
   4 C :    0.080637   -0.167320
   5 C :   -0.011745    0.219940
   6 C :   -0.022768   -0.110918
   7 C :   -0.076743    0.237996
   8 C :    0.026250   -0.119285
   9 H :   -0.049363   -0.009152
  10 H :   -0.050250    0.004346
  11 C :   -0.098139    0.705401
  12 H :   -0.021499   -0.030037
  13 C :    0.032883   -0.048342
  14 H :    0.029398    0.031764
  15 H :    0.029421    0.031652
  16 C :   -0.038155    0.002286
  17 H :    0.012962    0.000470
  18 H :    0.012975    0.000458
  19 C :    0.006067   -0.000180
  20 H :    0.017470    0.000154
  21 H :    0.017483    0.000154
  22 C :    0.043236   -0.018848
  23 H :    0.032002    0.010206
  24 H :    0.031977    0.010145
  25 C :   -0.036275    0.000877
  26 H :    0.016731    0.000184
  27 H :    0.016806    0.000179
  28 C :   -0.023887    0.000022
  29 H :    0.005988    0.000052
  30 H :    0.005973    0.000052
  31 C :    0.003732   -0.000081
  32 H :    0.017066    0.000024
  33 H :    0.017085    0.000024
  34 C :   -0.601542   -0.049810
  35 H :   -0.030247   -0.004152
  36 H :   -0.029088    0.001984
  37 H :    0.013514   -0.000204
  38 H :    0.012596   -0.000005
Sum of atomic charges         :    0.0000000

LOEWDIN ATOMIC CHARGES AND SPIN POPULATIONS
-------------------------------------------
   0 C :   -0.051081    0.081873
   1 C :   -0.002574   -0.024283
   2 C :   -0.000870    0.013915
   3 C :   -0.040637    0.163436
   4 C :   -0.039700   -0.071224
   5 C :    0.011193    0.165953
   6 C :   -0.053872   -0.060506
   7 C :   -0.004684    0.176018
   8 C :   -0.006778   -0.065409
   9 H :    0.029620    0.000870
  10 H :    0.031071   -0.000462
  11 C :    0.014530    0.580017
  12 H :    0.023236    0.003326
  13 C :   -0.054677    0.005529
  14 H :    0.034645    0.024808
  15 H :    0.034600    0.024714
  16 C :   -0.045769    0.001159
  17 H :    0.025928    0.000299
  18 H :    0.025938    0.000292
  19 C :   -0.067533   -0.000043
  20 H :    0.025592    0.000248
  21 H :    0.025596    0.000248
  22 C :   -0.034890    0.002211
  23 H :    0.039814    0.008030
  24 H :    0.039798    0.007983
  25 C :   -0.043570    0.000160
  26 H :    0.024551    0.000060
  27 H :    0.024543    0.000058
  28 C :   -0.046938    0.000016
  29 H :    0.024174    0.000089
  30 H :    0.024167    0.000089
  31 C :   -0.067475   -0.000039
  32 H :    0.025230    0.000016
  33 H :    0.025235    0.000016
  34 C :   -0.049583   -0.039404
  35 H :    0.022407    0.000119
  36 H :    0.022887   -0.000065
  37 H :    0.028386   -0.000112
  38 H :    0.027489   -0.000007

  Mayer bond orders larger than 0.100000
B(  0-C ,  1-C ) :   2.0990 B(  0-C , 35-H ) :   1.1197 B(  1-C ,  3-C ) :   0.9065
B(  2-C ,  6-C ) :   0.9026 B(  2-C , 34-C ) :   2.1252 B(  3-C ,  4-C ) :   1.2770
B(  3-C ,  8-C ) :   1.3953 B(  4-C ,  5-C ) :   1.2848 B(  4-C , 11-C ) :   1.3685
B(  5-C ,  6-C ) :   1.4405 B(  5-C ,  9-H ) :   0.9200 B(  6-C ,  7-C ) :   1.3424
B(  7-C ,  8-C ) :   1.4091 B(  7-C , 22-C ) :   1.0924 B(  8-C , 10-H ) :   0.9215
B( 11-C , 12-H ) :   0.9028 B( 11-C , 13-C ) :   1.0837 B( 13-C , 14-H ) :   0.9117
B( 13-C , 15-H ) :   0.9117 B( 13-C , 16-C ) :   1.0716 B( 16-C , 17-H ) :   0.9438
B( 16-C , 18-H ) :   0.9437 B( 16-C , 19-C ) :   1.1065 B( 19-C , 20-H ) :   0.9653
B( 19-C , 21-H ) :   0.9653 B( 19-C , 37-H ) :   0.9608 B( 22-C , 23-H ) :   0.8969
B( 22-C , 24-H ) :   0.8969 B( 22-C , 25-C ) :   1.1035 B( 25-C , 26-H ) :   0.9294
B( 25-C , 27-H ) :   0.9293 B( 25-C , 28-C ) :   1.0752 B( 28-C , 29-H ) :   0.9410
B( 28-C , 30-H ) :   0.9410 B( 28-C , 31-C ) :   1.1060 B( 31-C , 32-H ) :   0.9662
B( 31-C , 33-H ) :   0.9662 B( 31-C , 38-H ) :   0.9617 B( 34-C , 36-H ) :   1.1185

FINAL SINGLE POINT ENERGY      -697.967712020061

DIPOLE MOMENT
-------------
                                X             Y             Z
Electronic contribution:      0.61409       2.29056       0.01021
Nuclear contribution   :     -0.70376      -2.24976      -0.00945
                        -----------------------------------------
Total Dipole Moment    :     -0.08967       0.04080       0.00076
                        -----------------------------------------
Magnitude (a.u.)       :      0.09852
Magnitude (Debye)      :      0.25042

Rotational constants in cm-1:     0.022567     0.005964     0.004746
Rotational constants in MHz :   676.555654   178.787891   142.292788

                             ****ORCA TERMINATED NORMALLY****
TOTAL RUN TIME: 0 days 0 hours 2 minutes 43 seconds 264 msec
