                         Program Version 5.0.4 -  RELEASE  -
|  1> ! B3LYP cc-pVDZ OPT
|  2> %pal nprocs 16 end
|  3> *XYZFile 0 2 model.xyz
|  4>
|  5>                          ****END OF INPUT****
 Total Charge           Charge          ....    0
 Multiplicity           Mult            ....    2
 Number of Electrons    NEL             ....  129
FINAL SINGLE POINT ENERGY      -697.967712011778
                    ***********************HURRAY********************

CARTESIAN COORDINATES (ANGSTROEM)
---------------------------------
  C      3.991784   -0.048435    0.056346
  C      2.775712    0.001154    0.039648
  C     -2.904921    0.001529   -0.021694
  C      1.348481    0.036063    0.023781
  C      0.635152    1.290201    0.013521
  C     -0.786150    1.210014   -0.001501
  C     -1.471087   -0.006069   -0.006317
  C     -0.754959   -1.242857    0.003885
  C      0.640797   -1.177975    0.018518
  H     -1.371712    2.129541   -0.009530
  H      1.223674   -2.098813    0.026483
  C      1.310504    2.530996    0.018452
  H      2.403361    2.505271    0.030469
  C      0.640754    3.872473    0.008531
  H     -0.020275    3.959854   -0.878575
  H     -0.043331    3.961474    0.877793
  C      1.626405    5.048189    0.020362
  H      2.274910    4.965134    0.911543
  H      2.297355    4.964108   -0.853963
  C      0.933927    6.412245    0.010752
  H      0.280780    6.536667    0.891827
  H      0.303418    6.535595   -0.886820
  C     -1.517089   -2.551625   -0.001122
  H     -2.203424   -2.555125    0.866315
  H     -2.187900   -2.557491   -0.880574
  C     -0.686255   -3.837418    0.007984
  H     -0.014409   -3.856931   -0.869895
  H     -0.031140   -3.855437    0.898451
  C     -1.555636   -5.100694    0.001104
  H     -2.229939   -5.082944    0.877396
  H     -2.214140   -5.084251   -0.887149
  C     -0.737690   -6.394490    0.009386
  H     -0.094861   -6.456485    0.904485
  H     -0.079170   -6.457885   -0.874119
  C     -4.120618    0.011094   -0.036179
  H      5.062828   -0.098171    0.076211
  H     -5.192896    0.025363   -0.051172
  H      1.665950    7.235757    0.019557
  H     -1.388424   -7.283966    0.004373

 Multiplicity           Mult            ....    2
 Number of Electrons    NEL             ....  129
 Basis Dimension        Dim             ....  357

ORBITAL ENERGIES
----------------
                 SPIN UP ORBITALS
  NO   OCC          E(Eh)            E(eV)
   0   1.0000     -10.215421      -277.9757
   1   1.0000     -10.213419      -277.9213
   2   1.0000     -10.204189      -277.6701
   3   1.0000     -10.200078      -277.5582
   4   1.0000     -10.196633      -277.4645
   5   1.0000     -10.193579      -277.3814
   6   1.0000     -10.192787      -277.3598
   7   1.0000     -10.191755      -277.3317
   8   1.0000     -10.190842      -277.3069
   9   1.0000     -10.188918      -277.2546
  10   1.0000     -10.187442      -277.2144
  11   1.0000     -10.187362      -277.2122
  12   1.0000     -10.186654      -277.1929
  13   1.0000     -10.184314      -277.1293
  14   1.0000     -10.182167      -277.0709
  15   1.0000     -10.181847      -277.0621
  16   1.0000     -10.177399      -276.9411
  17   1.0000     -10.175647      -276.8934
  18   1.0000      -0.875634       -23.8272
  19   1.0000      -0.821132       -22.3441
  20   1.0000      -0.798418       -21.7260
  21   1.0000      -0.796388       -21.6708
  22   1.0000      -0.769039       -20.9266
  23   1.0000      -0.752768       -20.4839
  24   1.0000      -0.731750       -19.9119
  25   1.0000      -0.721397       -19.6302
  26   1.0000      -0.698768       -19.0144
  27   1.0000      -0.657588       -17.8939
  28   1.0000      -0.640117       -17.4185
  29   1.0000      -0.617999       -16.8166
  30   1.0000      -0.594657       -16.1814
  31   1.0000      -0.580860       -15.8060
  32   1.0000      -0.563314       -15.3286
  33   1.0000      -0.542225       -14.7547
  34   1.0000      -0.524584       -14.2747
  35   1.0000      -0.499442       -13.5905
  36   1.0000      -0.486893       -13.2490
  37   1.0000      -0.478502       -13.0207
  38   1.0000      -0.471031       -12.8174
  39   1.0000      -0.462819       -12.5939
  40   1.0000      -0.434241       -11.8163
  41   1.0000      -0.430622       -11.7178
  42   1.0000      -0.426744       -11.6123
  43   1.0000      -0.422408       -11.4943
  44   1.0000      -0.412554       -11.2262
  45   1.0000      -0.399078       -10.8595
  46   1.0000      -0.398522       -10.8443
  47   1.0000      -0.381069       -10.3694
  48   1.0000      -0.379743       -10.3333
  49   1.0000      -0.365966        -9.9584
  50   1.0000      -0.358138        -9.7454
  51   1.0000      -0.354928        -9.6581
  52   1.0000      -0.341090        -9.2815
  53   1.0000      -0.333281        -9.0690
  54   1.0000      -0.331663        -9.0250
  55   1.0000      -0.331057        -9.0085
  56   1.0000      -0.328159        -8.9296
  57   1.0000      -0.325089        -8.8461
  58   1.0000      -0.321423        -8.7464
  59   1.0000      -0.285603        -7.7716
  60   1.0000      -0.276503        -7.5240
  61   1.0000      -0.274879        -7.4798
  62   1.0000      -0.271296        -7.3823
  63   1.0000      -0.231124        -6.2892
  64   1.0000      -0.174671        -4.7530
  65   0.0000      -0.048343        -1.3155
  66   0.0000       0.010921         0.2972
  67   0.0000       0.040498         1.1020
  68   0.0000       0.049409         1.3445
  69   0.0000       0.052827         1.4375

                 SPIN DOWN ORBITALS
  NO   OCC          E(Eh)            E(eV)
   0   1.0000     -10.215054      -277.9657
   1   1.0000     -10.211987      -277.8823
   2   1.0000     -10.202533      -277.6250
   3   1.0000     -10.200719      -277.5757
   4   1.0000     -10.193536      -277.3802
   5   1.0000     -10.193363      -277.3755
   6   1.0000     -10.192392      -277.3491
   7   1.0000     -10.191619      -277.3281
   8   1.0000     -10.189599      -277.2731
   9   1.0000     -10.187988      -277.2293
  10   1.0000     -10.187647      -277.2200
  11   1.0000     -10.185359      -277.1577
  12   1.0000     -10.184275      -277.1282
  13   1.0000     -10.183568      -277.1090
  14   1.0000     -10.182164      -277.0708
  15   1.0000     -10.181847      -277.0621
  16   1.0000     -10.177407      -276.9413
  17   1.0000     -10.175648      -276.8935
  18   1.0000      -0.872204       -23.7339
  19   1.0000      -0.816060       -22.2061
  20   1.0000      -0.795795       -21.6547
  21   1.0000      -0.794974       -21.6323
  22   1.0000      -0.766993       -20.8709
  23   1.0000      -0.751900       -20.4602
  24   1.0000      -0.727642       -19.8001
  25   1.0000      -0.719934       -19.5904
  26   1.0000      -0.696397       -18.9499
  27   1.0000      -0.654524       -17.8105
  28   1.0000      -0.638239       -17.3674
  29   1.0000      -0.612408       -16.6645
  30   1.0000      -0.593697       -16.1553
  31   1.0000      -0.579289       -15.7632
  32   1.0000      -0.560782       -15.2597
  33   1.0000      -0.540932       -14.7195
  34   1.0000      -0.522041       -14.2055
  35   1.0000      -0.497250       -13.5309
  36   1.0000      -0.485450       -13.2098
  37   1.0000      -0.477122       -12.9832
  38   1.0000      -0.470151       -12.7934
  39   1.0000      -0.459309       -12.4984
  40   1.0000      -0.432160       -11.7597
  41   1.0000      -0.429163       -11.6781
  42   1.0000      -0.425508       -11.5787
  43   1.0000      -0.419693       -11.4204
  44   1.0000      -0.412075       -11.2131
  45   1.0000      -0.397418       -10.8143
  46   1.0000      -0.391227       -10.6458
  47   1.0000      -0.377449       -10.2709
  48   1.0000      -0.377180       -10.2636
  49   1.0000      -0.364793        -9.9265
  50   1.0000      -0.357134        -9.7181
  51   1.0000      -0.351754        -9.5717
  52   1.0000      -0.338785        -9.2188
  53   1.0000      -0.332768        -9.0551
  54   1.0000      -0.330033        -8.9807
  55   1.0000      -0.328655        -8.9432
  56   1.0000      -0.327813        -8.9202
  57   1.0000      -0.324330        -8.8255
  58   1.0000      -0.320688        -8.7264
  59   1.0000      -0.280070        -7.6211
  60   1.0000      -0.276467        -7.5231
  61   1.0000      -0.274221        -7.4619
  62   1.0000      -0.258905        -7.0452
  63   1.0000      -0.223131        -6.0717
  64   0.0000      -0.084278        -2.2933
  65   0.0000      -0.039293        -1.0692
  66   0.0000       0.027004         0.7348
  67   0.0000       0.040898         1.1129
  68   0.0000       0.049714         1.3528

MULLIKEN ATOMIC CHARGES AND SPIN POPULATIONS
--------------------------------------------
   0 C :   -0.600617    0.102517
   1 C :    0.632262   -0.061132
   2 C :    0.625280    0.029733
   3 C :   -0.049537    0.228940
   4 C :    0.080690   -0.167338
   5 C :   -0.011811    0.219975
   6 C :   -0.022784   -0.110939
   7 C :   -0.076658    0.238049
   8 C :    0.026252   -0.119307
   9 H :   -0.049362   -0.009153
  10 H :   -0.050249    0.004347
  11 C :   -0.098172    0.705306
  12 H :   -0.021497   -0.030033
  13 C :    0.032962   -0.048330
  14 H :    0.029394    0.031760
  15 H :    0.029423    0.031622
  16 C :   -0.038228    0.002286
  17 H :    0.012965    0.000471
  18 H :    0.012980    0.000456
  19 C :    0.006073   -0.000180
  20 H :    0.017475    0.000154
  21 H :    0.017493    0.000154
  22 C :    0.043184   -0.018853
  23 H :    0.032001    0.010204
  24 H :    0.031981    0.010158
  25 C :   -0.036193    0.000877
  26 H :    0.016748    0.000184
  27 H :    0.016791    0.000180
  28 C :   -0.023973    0.000023
  29 H :    0.005986    0.000052
  30 H :    0.005974    0.000052
  31 C :    0.003765   -0.000081
  32 H :    0.017080    0.000024
  33 H :    0.017091    0.000024
  34 C :   -0.601557   -0.049822
  35 H :   -0.030247   -0.004154
  36 H :   -0.029082    0.001985
  37 H :    0.013511   -0.000204
  38 H :    0.012608   -0.000005
Sum of atomic charges         :    0.0000000

LOEWDIN ATOMIC CHARGES AND SPIN POPULATIONS
-------------------------------------------
   0 C :   -0.051084    0.081905
   1 C :   -0.002576   -0.024290
   2 C :   -0.000874    0.013919
   3 C :   -0.040637    0.163485
   4 C :   -0.039709   -0.071231
   5 C :    0.011198    0.165981
   6 C :   -0.053879   -0.060517
   7 C :   -0.004694    0.176055
   8 C :   -0.006789   -0.065419
   9 H :    0.029621    0.000869
  10 H :    0.031075   -0.000462
  11 C :    0.014527    0.579931
  12 H :    0.023238    0.003325
  13 C :   -0.054645    0.005524
  14 H :    0.034639    0.024806
  15 H :    0.034594    0.024689
  16 C :   -0.045762    0.001160
  17 H :    0.025927    0.000300
  18 H :    0.025933    0.000291
  19 C :   -0.067537   -0.000043
  20 H :    0.025591    0.000248
  21 H :    0.025595    0.000248
  22 C :   -0.034900    0.002215
  23 H :    0.039819    0.008029
  24 H :    0.039806    0.007993
  25 C :   -0.043542    0.000160
  26 H :    0.024543    0.000060
  27 H :    0.024539    0.000058
  28 C :   -0.046924    0.000016
  29 H :    0.024166    0.000090
  30 H :    0.024160    0.000090
  31 C :   -0.067472   -0.000039
  32 H :    0.025231    0.000016
  33 H :    0.025234    0.000016
  34 C :   -0.049584   -0.039414
  35 H :    0.022409    0.000119
  36 H :    0.022891   -0.000064
  37 H :    0.028384   -0.000112
  38 H :    0.027488   -0.000007

  Mayer bond orders larger than 0.100000
B(  0-C ,  1-C ) :   2.0989 B(  0-C , 35-H ) :   1.1197 B(  1-C ,  3-C ) :   0.9065
B(  2-C ,  6-C ) :   0.9026 B(  2-C , 34-C ) :   2.1252 B(  3-C ,  4-C ) :   1.2770
B(  3-C ,  8-C ) :   1.3953 B(  4-C ,  5-C ) :   1.2846 B(  4-C , 11-C ) :   1.3686
B(  5-C ,  6-C ) :   1.4406 B(  5-C ,  9-H ) :   0.9200 B(  6-C ,  7-C ) :   1.3424
B(  7-C ,  8-C ) :   1.4091 B(  7-C , 22-C ) :   1.0924 B(  8-C , 10-H ) :   0.9215
B( 11-C , 12-H ) :   0.9028 B( 11-C , 13-C ) :   1.0837 B( 13-C , 14-H ) :   0.9117
B( 13-C , 15-H ) :   0.9117 B( 13-C , 16-C ) :   1.0715 B( 16-C , 17-H ) :   0.9438
B( 16-C , 18-H ) :   0.9437 B( 16-C , 19-C ) :   1.1065 B( 19-C , 20-H ) :   0.9653
B( 19-C , 21-H ) :   0.9653 B( 19-C , 37-H ) :   0.9608 B( 22-C , 23-H ) :   0.8969
B( 22-C , 24-H ) :   0.8969 B( 22-C , 25-C ) :   1.1035 B( 25-C , 26-H ) :   0.9294
B( 25-C , 27-H ) :   0.9293 B( 25-C , 28-C ) :   1.0751 B( 28-C , 29-H ) :   0.9410
B( 28-C , 30-H ) :   0.9410 B( 28-C , 31-C ) :   1.1060 B( 31-C , 32-H ) :   0.9662
B( 31-C , 33-H ) :   0.9662 B( 31-C , 38-H ) :   0.9617 B( 34-C , 36-H ) :   1.1185

FINAL SINGLE POINT ENERGY      -697.967712589011

DIPOLE MOMENT
-------------
                                X             Y             Z
Electronic contribution:      0.61384       2.29010       0.00065
Nuclear contribution   :     -0.70353      -2.24924       0.00006
                        -----------------------------------------
Total Dipole Moment    :     -0.08968       0.04086       0.00072
                        -----------------------------------------
Magnitude (a.u.)       :      0.09856
Magnitude (Debye)      :      0.25051

Rotational constants in cm-1:     0.022570     0.005963     0.004746
Rotational constants in MHz :   676.637009   178.773730   142.287384

                             ****ORCA TERMINATED NORMALLY****
TOTAL RUN TIME: 0 days 0 hours 2 minutes 41 seconds 363 msec
