                         Program Version 5.0.4 -  RELEASE  -
|  1> ! B3LYP EPR-II OPT
|  2> %pal nprocs 16 end
|  3> *XYZFile 0 2 model.xyz
|  4>
|  5>                          ****END OF INPUT****
 Total Charge           Charge          ....    0
 Multiplicity           Mult            ....    2
 Number of Electrons    NEL             ....  129
FINAL SINGLE POINT ENERGY      -698.028644384051
FINAL SINGLE POINT ENERGY      -698.029553108669
FINAL SINGLE POINT ENERGY      -698.029600248605
FINAL SINGLE POINT ENERGY      -698.029615805940
FINAL SINGLE POINT ENERGY      -698.029618198165
FINAL SINGLE POINT ENERGY      -698.029619452467
                    ***********************HURRAY********************

CARTESIAN COORDINATES (ANGSTROEM)
---------------------------------
  C      3.996663   -0.031218    0.044752
  C      2.775587    0.000837    0.030796
  C     -2.914081    0.003186   -0.025068
  C      1.345454    0.033471    0.016926
  C      0.632487    1.290820    0.007787
  C     -0.792597    1.215399   -0.006488
  C     -1.477264   -0.004790   -0.010752
  C     -0.762282   -1.245481   -0.000761
  C      0.637393   -1.184004    0.012603
  H     -1.372313    2.131631   -0.014119
  H      1.214679   -2.101341    0.020115
  C      1.314108    2.532726    0.013254
  H      2.400505    2.507570    0.024443
  C      0.642962    3.880406    0.004222
  H     -0.000515    3.974298   -0.885220
  H     -0.037269    3.967932    0.866399
  C      1.638335    5.055380    0.029627
  H      2.271002    4.969828    0.922261
  H      2.308626    4.976572   -0.835798
  C      0.943022    6.426885    0.019914
  H      0.288848    6.543405    0.891447
  H      0.326096    6.549720   -0.877540
  C     -1.528922   -2.557006   -0.004981
  H     -2.208454   -2.560921    0.858404
  H     -2.187947   -2.567439   -0.884119
  C     -0.688976   -3.843704    0.009649
  H     -0.022983   -3.865865   -0.863312
  H     -0.043357   -3.859068    0.897946
  C     -1.561044   -5.112275    0.004530
  H     -2.229709   -5.094934    0.875438
  H     -2.208947   -5.102064   -0.882046
  C     -0.733534   -6.409242    0.019529
  H     -0.099518   -6.461256    0.911868
  H     -0.078322   -6.468033   -0.856930
  C     -4.134149    0.002357   -0.038222
  H      5.061947   -0.064523    0.059320
  H     -5.200021    0.007760   -0.050701
  H      1.673164    7.242384    0.038150
  H     -1.378912   -7.293742    0.015239

 Multiplicity           Mult            ....    2
 Number of Electrons    NEL             ....  129
 Basis Dimension        Dim             ....  453

ORBITAL ENERGIES
----------------
                 SPIN UP ORBITALS
  NO   OCC          E(Eh)            E(eV)
   0   1.0000     -10.226941      -278.2892
   1   1.0000     -10.225162      -278.2408
   2   1.0000     -10.214639      -277.9544
   3   1.0000     -10.211683      -277.8740
   4   1.0000     -10.208115      -277.7769
   5   1.0000     -10.206171      -277.7240
   6   1.0000     -10.204668      -277.6831
   7   1.0000     -10.199683      -277.5475
   8   1.0000     -10.199619      -277.5457
   9   1.0000     -10.198570      -277.5172
  10   1.0000     -10.198116      -277.5049
  11   1.0000     -10.189660      -277.2748
  12   1.0000     -10.187839      -277.2252
  13   1.0000     -10.184221      -277.1267
  14   1.0000     -10.181797      -277.0608
  15   1.0000     -10.181221      -277.0451
  16   1.0000     -10.173278      -276.8290
  17   1.0000     -10.171031      -276.7678
  18   1.0000      -0.874250       -23.7896
  19   1.0000      -0.819460       -22.2986
  20   1.0000      -0.797455       -21.6999
  21   1.0000      -0.794162       -21.6102
  22   1.0000      -0.767255       -20.8781
  23   1.0000      -0.753652       -20.5079
  24   1.0000      -0.730370       -19.8744
  25   1.0000      -0.722599       -19.6629
  26   1.0000      -0.697816       -18.9885
  27   1.0000      -0.657275       -17.8854
  28   1.0000      -0.640772       -17.4363
  29   1.0000      -0.618549       -16.8316
  30   1.0000      -0.595630       -16.2079
  31   1.0000      -0.582068       -15.8389
  32   1.0000      -0.564827       -15.3697
  33   1.0000      -0.545202       -14.8357
  34   1.0000      -0.527291       -14.3483
  35   1.0000      -0.500781       -13.6269
  36   1.0000      -0.487982       -13.2787
  37   1.0000      -0.478088       -13.0094
  38   1.0000      -0.471754       -12.8371
  39   1.0000      -0.464127       -12.6295
  40   1.0000      -0.434950       -11.8356
  41   1.0000      -0.430093       -11.7034
  42   1.0000      -0.426070       -11.5940
  43   1.0000      -0.423418       -11.5218
  44   1.0000      -0.412541       -11.2258
  45   1.0000      -0.400262       -10.8917
  46   1.0000      -0.397734       -10.8229
  47   1.0000      -0.382175       -10.3995
  48   1.0000      -0.380126       -10.3438
  49   1.0000      -0.365701        -9.9512
  50   1.0000      -0.357958        -9.7405
  51   1.0000      -0.356810        -9.7093
  52   1.0000      -0.339232        -9.2310
  53   1.0000      -0.333806        -9.0833
  54   1.0000      -0.333025        -9.0621
  55   1.0000      -0.332499        -9.0478
  56   1.0000      -0.327703        -8.9173
  57   1.0000      -0.323164        -8.7937
  58   1.0000      -0.323044        -8.7905
  59   1.0000      -0.286653        -7.8002
  60   1.0000      -0.278041        -7.5659
  61   1.0000      -0.276511        -7.5242
  62   1.0000      -0.272057        -7.4031
  63   1.0000      -0.232602        -6.3294
  64   1.0000      -0.175982        -4.7887
  65   0.0000      -0.052039        -1.4161
  66   0.0000       0.007179         0.1953
  67   0.0000       0.018758         0.5104
  68   0.0000       0.021636         0.5887
  69   0.0000       0.024794         0.6747

                 SPIN DOWN ORBITALS
  NO   OCC          E(Eh)            E(eV)
   0   1.0000     -10.226808      -278.2856
   1   1.0000     -10.223501      -278.1956
   2   1.0000     -10.214139      -277.9409
   3   1.0000     -10.211158      -277.8597
   4   1.0000     -10.207678      -277.7650
   5   1.0000     -10.207005      -277.7467
   6   1.0000     -10.201564      -277.5987
   7   1.0000     -10.201232      -277.5896
   8   1.0000     -10.199234      -277.5353
   9   1.0000     -10.196790      -277.4688
  10   1.0000     -10.190330      -277.2930
  11   1.0000     -10.189729      -277.2766
  12   1.0000     -10.188036      -277.2305
  13   1.0000     -10.184185      -277.1258
  14   1.0000     -10.181794      -277.0607
  15   1.0000     -10.181223      -277.0452
  16   1.0000     -10.173287      -276.8292
  17   1.0000     -10.171033      -276.7679
  18   1.0000      -0.870838       -23.6967
  19   1.0000      -0.814480       -22.1631
  20   1.0000      -0.794976       -21.6324
  21   1.0000      -0.792448       -21.5636
  22   1.0000      -0.765303       -20.8250
  23   1.0000      -0.752886       -20.4871
  24   1.0000      -0.726221       -19.7615
  25   1.0000      -0.721160       -19.6238
  26   1.0000      -0.695498       -18.9255
  27   1.0000      -0.654137       -17.8000
  28   1.0000      -0.638904       -17.3855
  29   1.0000      -0.612981       -16.6801
  30   1.0000      -0.594693       -16.1824
  31   1.0000      -0.580466       -15.7953
  32   1.0000      -0.562311       -15.3012
  33   1.0000      -0.543894       -14.8001
  34   1.0000      -0.524984       -14.2855
  35   1.0000      -0.498341       -13.5605
  36   1.0000      -0.486529       -13.2391
  37   1.0000      -0.476607       -12.9691
  38   1.0000      -0.470872       -12.8131
  39   1.0000      -0.460703       -12.5364
  40   1.0000      -0.433637       -11.7999
  41   1.0000      -0.427717       -11.6388
  42   1.0000      -0.424807       -11.5596
  43   1.0000      -0.420862       -11.4522
  44   1.0000      -0.412156       -11.2153
  45   1.0000      -0.396575       -10.7914
  46   1.0000      -0.392713       -10.6863
  47   1.0000      -0.378204       -10.2914
  48   1.0000      -0.377805       -10.2806
  49   1.0000      -0.364484        -9.9181
  50   1.0000      -0.357001        -9.7145
  51   1.0000      -0.353677        -9.6240
  52   1.0000      -0.336814        -9.1652
  53   1.0000      -0.332555        -9.0493
  54   1.0000      -0.332063        -9.0359
  55   1.0000      -0.330303        -8.9880
  56   1.0000      -0.327337        -8.9073
  57   1.0000      -0.322415        -8.7734
  58   1.0000      -0.322356        -8.7718
  59   1.0000      -0.281231        -7.6527
  60   1.0000      -0.277997        -7.5647
  61   1.0000      -0.275870        -7.5068
  62   1.0000      -0.259412        -7.0590
  63   1.0000      -0.224709        -6.1146
  64   0.0000      -0.086024        -2.3408
  65   0.0000      -0.043182        -1.1750
  66   0.0000       0.019098         0.5197
  67   0.0000       0.021862         0.5949
  68   0.0000       0.023076         0.6279

MULLIKEN ATOMIC CHARGES AND SPIN POPULATIONS
--------------------------------------------
   0 C :   -0.536774    0.101623
   1 C :   -0.012244   -0.054167
   2 C :   -0.002657    0.026767
   3 C :    0.355079    0.204615
   4 C :    0.446384   -0.136827
   5 C :   -0.450045    0.211792
   6 C :    0.424500   -0.095616
   7 C :    0.294793    0.225020
   8 C :   -0.391125   -0.111692
   9 H :    0.132081   -0.011427
  10 H :    0.134295    0.005196
  11 C :   -0.295363    0.702082
  12 H :    0.134539   -0.036402
  13 C :   -0.270479   -0.045293
  14 H :    0.153218    0.029870
  15 H :    0.152371    0.029285
  16 C :   -0.289727    0.002129
  17 H :    0.156094   -0.000156
  18 H :    0.155739   -0.000145
  19 C :   -0.508887   -0.000783
  20 H :    0.159165    0.000166
  21 H :    0.159148    0.000166
  22 C :   -0.386680   -0.016421
  23 H :    0.155663    0.010359
  24 H :    0.155760    0.010418
  25 C :   -0.269022    0.000909
  26 H :    0.142006    0.000176
  27 H :    0.142224    0.000177
  28 C :   -0.262567   -0.000239
  29 H :    0.144840    0.000043
  30 H :    0.144846    0.000042
  31 C :   -0.510211   -0.000086
  32 H :    0.159682    0.000023
  33 H :    0.159655    0.000023
  34 C :   -0.536398   -0.049359
  35 H :    0.184853   -0.004111
  36 H :    0.184242    0.002012
  37 H :    0.146439   -0.000167
  38 H :    0.144561   -0.000005
Sum of atomic charges         :   -0.0000000

LOEWDIN ATOMIC CHARGES AND SPIN POPULATIONS
-------------------------------------------
   0 C :   -0.062320    0.081157
   1 C :   -0.032149   -0.023769
   2 C :   -0.028921    0.014032
   3 C :   -0.057953    0.163937
   4 C :   -0.065748   -0.071576
   5 C :    0.011098    0.168029
   6 C :   -0.071099   -0.060984
   7 C :   -0.039132    0.177450
   8 C :   -0.007513   -0.066214
   9 H :    0.060348    0.001202
  10 H :    0.061834   -0.000587
  11 C :   -0.005678    0.580682
  12 H :    0.058856    0.004543
  13 C :   -0.082416    0.003547
  14 H :    0.054520    0.024528
  15 H :    0.054231    0.024005
  16 C :   -0.087235    0.000939
  17 H :    0.042468   -0.000048
  18 H :    0.042385   -0.000048
  19 C :   -0.077707   -0.000165
  20 H :    0.034282    0.000200
  21 H :    0.034291    0.000202
  22 C :   -0.044205    0.001652
  23 H :    0.060076    0.008259
  24 H :    0.060084    0.008300
  25 C :   -0.079431    0.000194
  26 H :    0.044594    0.000008
  27 H :    0.044664    0.000007
  28 C :   -0.089847   -0.000007
  29 H :    0.041067    0.000059
  30 H :    0.041068    0.000059
  31 C :   -0.078543   -0.000035
  32 H :    0.034081    0.000015
  33 H :    0.034080    0.000015
  34 C :   -0.058879   -0.039722
  35 H :    0.045213    0.000453
  36 H :    0.045500   -0.000229
  37 H :    0.032412   -0.000084
  38 H :    0.031622   -0.000006

  Mayer bond orders larger than 0.100000
B(  0-C ,  1-C ) :   2.6946 B(  0-C , 35-H ) :   0.9860 B(  1-C ,  3-C ) :   0.9277
B(  2-C ,  6-C ) :   0.9063 B(  2-C , 34-C ) :   2.7127 B(  3-C ,  4-C ) :   1.2373
B(  3-C ,  8-C ) :   1.4328 B(  4-C ,  5-C ) :   1.2534 B(  4-C ,  6-C ) :   0.1010
B(  4-C , 11-C ) :   1.2698 B(  5-C ,  6-C ) :   1.4775 B(  5-C ,  9-H ) :   0.9726
B(  6-C ,  7-C ) :   1.3138 B(  6-C ,  8-C ) :   0.1017 B(  7-C ,  8-C ) :   1.4298
B(  7-C , 22-C ) :   0.9450 B(  8-C , 10-H ) :   0.9690 B( 11-C , 12-H ) :   0.9874
B( 11-C , 13-C ) :   1.0038 B( 13-C , 14-H ) :   0.9554 B( 13-C , 15-H ) :   0.9550
B( 13-C , 16-C ) :   0.9808 B( 16-C , 17-H ) :   0.9725 B( 16-C , 18-H ) :   0.9721
B( 16-C , 19-C ) :   0.9617 B( 19-C , 20-H ) :   0.9727 B( 19-C , 21-H ) :   0.9728
B( 19-C , 37-H ) :   0.9674 B( 22-C , 23-H ) :   0.9592 B( 22-C , 24-H ) :   0.9592
B( 22-C , 25-C ) :   1.0194 B( 25-C , 26-H ) :   0.9613 B( 25-C , 27-H ) :   0.9614
B( 25-C , 28-C ) :   0.9861 B( 28-C , 29-H ) :   0.9717 B( 28-C , 30-H ) :   0.9717
B( 28-C , 31-C ) :   0.9547 B( 31-C , 32-H ) :   0.9730 B( 31-C , 33-H ) :   0.9730
B( 31-C , 38-H ) :   0.9677 B( 34-C , 36-H ) :   0.9831

FINAL SINGLE POINT ENERGY      -698.029620490513

DIPOLE MOMENT
-------------
                                X             Y             Z
Electronic contribution:      0.54058       2.30646      -0.06999
Nuclear contribution   :     -0.63697      -2.24804       0.07068
                        -----------------------------------------
Total Dipole Moment    :     -0.09640       0.05842       0.00068
                        -----------------------------------------
Magnitude (a.u.)       :      0.11272
Magnitude (Debye)      :      0.28651

Rotational constants in cm-1:     0.022511     0.005937     0.004727
Rotational constants in MHz :   674.872210   177.979418   141.699834

                             ****ORCA TERMINATED NORMALLY****
TOTAL RUN TIME: 0 days 0 hours 10 minutes 12 seconds 682 msec
