                         Program Version 5.0.4 -  RELEASE  -
|  1> ! B3LYP cc-pVDZ AUTOAUX
|  2> %pal nprocs 16 end
|  3> *XYZFile 0 2 opt.xyz
|  4> %EPRNMR
|  5>         GTENSOR   TRUE
|  6>         NUCLEI    = ALL H {SHIFT, AISO, ADIP, AORB}
|  7>         ORI       GIAO
|  8> END
|  9>
| 10>                          ****END OF INPUT****

CARTESIAN COORDINATES (ANGSTROEM)
---------------------------------
  C     -2.775358    0.046208   -0.011751
  C      2.820255    0.009685   -0.009139
  C     -1.416126   -0.010274   -0.011347
  C     -0.684648   -1.267420   -0.014386
  C      0.690490   -1.196208   -0.013389
  C      1.407047    0.036197   -0.009702
  C      0.687689    1.279681   -0.006696
  C     -0.690449    1.243926   -0.007610
  H      1.277162   -2.115524   -0.015523
  H     -1.268852    2.166837   -0.005472
  C     -1.480792   -2.555886   -0.018568
  H     -2.154671   -2.540740   -0.897146
  H     -2.157395   -2.544715    0.857974
  C     -0.681275   -3.861204   -0.020309
  H     -0.017862   -3.890851   -0.904058
  H     -0.020683   -3.894869    0.865412
  C     -1.579450   -5.104210   -0.024628
  H     -2.246605   -5.074150    0.856659
  H     -2.243576   -5.070198   -0.908059
  C     -0.790051   -6.415615   -0.026228
  H     -0.143052   -6.494872    0.864454
  H     -0.139497   -6.490536   -0.914694
  C      1.465882    2.581608   -0.002726
  H      2.141040    2.571608    0.872700
  H      2.142655    2.575943   -0.876938
  C      0.653075    3.878460   -0.000281
  H     -0.008622    3.909115   -0.885508
  H     -0.010403    3.904750    0.883750
  C      1.540606    5.129343    0.003729
  H      2.205493    5.100499    0.886927
  H      2.207479    5.104735   -0.878099
  C      0.741236    6.434757    0.005976
  H      0.090513    6.504407    0.894697
  H      0.093010    6.509016   -0.884195
  C      4.046121   -0.034213   -0.010003
  H     -1.460807   -7.289936   -0.029701
  H      1.404972    7.314510    0.009190
  C      5.469175   -0.089851   -0.009729
  C      6.140470   -1.334126   -0.012366
  C      7.533422   -1.384522   -0.012085
  C      8.284577   -0.203110   -0.009213
  C      7.630744    1.034879   -0.006618
  C      6.238242    1.096428   -0.006877
  H      9.376146   -0.247118   -0.009009
  H      8.211876    1.960203   -0.004379
  H      5.552872   -2.254102   -0.014605
  H      5.726741    2.060809   -0.004870
  H      8.038460   -2.353485   -0.014131

 Total Charge           Charge          ....    0
 Multiplicity           Mult            ....    2
 Number of Electrons    NEL             ....  163
 Basis Dimension        Dim             ....  447

ORBITAL ENERGIES
----------------
                 SPIN UP ORBITALS
  NO   OCC          E(Eh)            E(eV)
   0   1.0000     -10.241606      -278.6883
   1   1.0000     -10.232520      -278.4410
   2   1.0000     -10.216999      -278.0187
   3   1.0000     -10.214871      -277.9608
   4   1.0000     -10.213493      -277.9233
   5   1.0000     -10.213374      -277.9200
   6   1.0000     -10.211699      -277.8745
   7   1.0000     -10.210688      -277.8470
   8   1.0000     -10.209667      -277.8192
   9   1.0000     -10.209566      -277.8164
  10   1.0000     -10.208507      -277.7876
  11   1.0000     -10.206745      -277.7397
  12   1.0000     -10.202561      -277.6258
  13   1.0000     -10.194324      -277.4017
  14   1.0000     -10.187769      -277.2233
  15   1.0000     -10.187141      -277.2062
  16   1.0000     -10.186344      -277.1845
  17   1.0000     -10.182983      -277.0930
  18   1.0000     -10.181808      -277.0611
  19   1.0000     -10.178413      -276.9687
  20   1.0000     -10.176786      -276.9244
  21   1.0000     -10.176105      -276.9059
  22   1.0000     -10.164405      -276.5875
  23   1.0000      -0.882020       -24.0010
  24   1.0000      -0.878144       -23.8955
  25   1.0000      -0.823588       -22.4110
  26   1.0000      -0.808489       -22.0001
  27   1.0000      -0.796980       -21.6869
  28   1.0000      -0.786651       -21.4059
  29   1.0000      -0.772693       -21.0261
  30   1.0000      -0.765927       -20.8419
  31   1.0000      -0.741931       -20.1890
  32   1.0000      -0.733234       -19.9523
  33   1.0000      -0.705049       -19.1854
  34   1.0000      -0.674939       -18.3660
  35   1.0000      -0.656543       -17.8654
  36   1.0000      -0.634916       -17.2770
  37   1.0000      -0.625091       -17.0096
  38   1.0000      -0.623691       -16.9715
  39   1.0000      -0.597692       -16.2640
  40   1.0000      -0.582415       -15.8483
  41   1.0000      -0.566977       -15.4282
  42   1.0000      -0.556300       -15.1377
  43   1.0000      -0.534438       -14.5428
  44   1.0000      -0.518894       -14.1198
  45   1.0000      -0.494719       -13.4620
  46   1.0000      -0.483462       -13.1557
  47   1.0000      -0.476199       -12.9580
  48   1.0000      -0.472820       -12.8661
  49   1.0000      -0.471292       -12.8245
  50   1.0000      -0.450467       -12.2578
  51   1.0000      -0.440274       -11.9805
  52   1.0000      -0.438615       -11.9353
  53   1.0000      -0.429275       -11.6812
  54   1.0000      -0.428444       -11.6586
  55   1.0000      -0.426115       -11.5952
  56   1.0000      -0.419000       -11.4016
  57   1.0000      -0.414177       -11.2703
  58   1.0000      -0.410189       -11.1618
  59   1.0000      -0.398428       -10.8418
  60   1.0000      -0.382502       -10.4084
  61   1.0000      -0.376545       -10.2463
  62   1.0000      -0.375213       -10.2101
  63   1.0000      -0.369090       -10.0434
  64   1.0000      -0.366408        -9.9705
  65   1.0000      -0.364045        -9.9062
  66   1.0000      -0.360269        -9.8034
  67   1.0000      -0.348430        -9.4813
  68   1.0000      -0.336990        -9.1700
  69   1.0000      -0.332665        -9.0523
  70   1.0000      -0.330705        -8.9989
  71   1.0000      -0.329080        -8.9547
  72   1.0000      -0.327209        -8.9038
  73   1.0000      -0.324044        -8.8177
  74   1.0000      -0.322606        -8.7785
  75   1.0000      -0.288924        -7.8620
  76   1.0000      -0.286445        -7.7946
  77   1.0000      -0.273317        -7.4373
  78   1.0000      -0.257343        -7.0027
  79   1.0000      -0.242267        -6.5924
  80   1.0000      -0.234071        -6.3694
  81   1.0000      -0.157534        -4.2867
  82   0.0000      -0.110373        -3.0034
  83   0.0000      -0.041080        -1.1178
  84   0.0000      -0.024584        -0.6690
  85   0.0000      -0.007793        -0.2121
  86   0.0000       0.026569         0.7230

                 SPIN DOWN ORBITALS
  NO   OCC          E(Eh)            E(eV)
   0   1.0000     -10.241890      -278.6960
   1   1.0000     -10.232475      -278.4398
   2   1.0000     -10.215888      -277.9884
   3   1.0000     -10.215064      -277.9660
   4   1.0000     -10.213545      -277.9247
   5   1.0000     -10.213426      -277.9214
   6   1.0000     -10.211754      -277.8760
   7   1.0000     -10.210398      -277.8391
   8   1.0000     -10.209642      -277.8185
   9   1.0000     -10.209542      -277.8158
  10   1.0000     -10.208408      -277.7849
  11   1.0000     -10.205375      -277.7024
  12   1.0000     -10.202447      -277.6227
  13   1.0000     -10.194268      -277.4001
  14   1.0000     -10.187635      -277.2196
  15   1.0000     -10.187142      -277.2062
  16   1.0000     -10.186343      -277.1845
  17   1.0000     -10.182960      -277.0924
  18   1.0000     -10.181804      -277.0610
  19   1.0000     -10.178413      -276.9687
  20   1.0000     -10.177668      -276.9484
  21   1.0000     -10.176105      -276.9059
  22   1.0000     -10.150584      -276.2114
  23   1.0000      -0.881189       -23.9784
  24   1.0000      -0.877684       -23.8830
  25   1.0000      -0.822029       -22.3686
  26   1.0000      -0.808053       -21.9882
  27   1.0000      -0.796686       -21.6789
  28   1.0000      -0.783820       -21.3288
  29   1.0000      -0.771935       -21.0054
  30   1.0000      -0.765975       -20.8432
  31   1.0000      -0.738572       -20.0976
  32   1.0000      -0.733012       -19.9463
  33   1.0000      -0.704194       -19.1621
  34   1.0000      -0.667447       -18.1622
  35   1.0000      -0.655753       -17.8439
  36   1.0000      -0.632695       -17.2165
  37   1.0000      -0.624840       -17.0028
  38   1.0000      -0.623722       -16.9723
  39   1.0000      -0.595933       -16.2162
  40   1.0000      -0.581802       -15.8316
  41   1.0000      -0.566294       -15.4097
  42   1.0000      -0.554594       -15.0913
  43   1.0000      -0.524096       -14.2614
  44   1.0000      -0.516838       -14.0639
  45   1.0000      -0.494527       -13.4568
  46   1.0000      -0.479343       -13.0436
  47   1.0000      -0.476177       -12.9574
  48   1.0000      -0.472516       -12.8578
  49   1.0000      -0.471235       -12.8229
  50   1.0000      -0.450448       -12.2573
  51   1.0000      -0.438840       -11.9415
  52   1.0000      -0.438583       -11.9345
  53   1.0000      -0.428435       -11.6583
  54   1.0000      -0.428035       -11.6474
  55   1.0000      -0.425793       -11.5864
  56   1.0000      -0.418897       -11.3988
  57   1.0000      -0.413693       -11.2572
  58   1.0000      -0.406936       -11.0733
  59   1.0000      -0.398686       -10.8488
  60   1.0000      -0.382583       -10.4106
  61   1.0000      -0.376073       -10.2335
  62   1.0000      -0.373584       -10.1657
  63   1.0000      -0.368383       -10.0242
  64   1.0000      -0.365581        -9.9480
  65   1.0000      -0.362756        -9.8711
  66   1.0000      -0.360110        -9.7991
  67   1.0000      -0.348625        -9.4866
  68   1.0000      -0.336897        -9.1674
  69   1.0000      -0.332283        -9.0419
  70   1.0000      -0.330345        -8.9891
  71   1.0000      -0.328948        -8.9511
  72   1.0000      -0.327228        -8.9043
  73   1.0000      -0.322593        -8.7782
  74   1.0000      -0.322536        -8.7767
  75   1.0000      -0.287998        -7.8368
  76   1.0000      -0.286377        -7.7927
  77   1.0000      -0.273452        -7.4410
  78   1.0000      -0.256690        -6.9849
  79   1.0000      -0.232762        -6.3338
  80   1.0000      -0.219092        -5.9618
  81   0.0000      -0.104314        -2.8385
  82   0.0000      -0.038519        -1.0482
  83   0.0000      -0.024718        -0.6726
  84   0.0000      -0.007168        -0.1951
  85   0.0000      -0.003980        -0.1083

MULLIKEN ATOMIC CHARGES AND SPIN POPULATIONS
--------------------------------------------
   0 C :   -0.252064    0.991321
   1 C :    0.283416    0.007835
   2 C :    0.002949   -0.058438
   3 C :   -0.042915    0.022941
   4 C :    0.006809    0.005261
   5 C :   -0.165382   -0.019777
   6 C :   -0.071461    0.009750
   7 C :    0.053049    0.032595
   8 H :   -0.052514    0.003921
   9 H :   -0.040462    0.004798
  10 C :    0.049413    0.010828
  11 H :    0.043167    0.000819
  12 H :    0.043185    0.000852
  13 C :   -0.040443    0.001043
  14 H :    0.012420    0.000468
  15 H :    0.012377    0.000464
  16 C :   -0.024985    0.000042
  17 H :    0.009205    0.000066
  18 H :    0.009188    0.000065
  19 C :    0.001869   -0.000022
  20 H :    0.015906   -0.000001
  21 H :    0.015881   -0.000001
  22 C :    0.036781    0.002155
  23 H :    0.030105    0.000332
  24 H :    0.030100    0.000335
  25 C :   -0.035899   -0.000068
  26 H :    0.020588   -0.000018
  27 H :    0.020616   -0.000018
  28 C :   -0.027069   -0.000058
  29 H :    0.005057    0.000004
  30 H :    0.005053    0.000004
  31 C :    0.003200    0.000024
  32 H :    0.019774   -0.000000
  33 H :    0.019784   -0.000000
  34 C :    0.174833   -0.013280
  35 H :    0.014235   -0.000014
  36 H :    0.013159   -0.000003
  37 C :   -0.263477    0.002809
  38 C :    0.035590   -0.003539
  39 C :    0.041672    0.001853
  40 C :    0.038484   -0.004019
  41 C :    0.041432    0.001853
  42 C :    0.032990   -0.003542
  43 H :   -0.019320    0.000179
  44 H :   -0.020425   -0.000065
  45 H :   -0.033114    0.000145
  46 H :   -0.032412    0.000170
  47 H :   -0.020347   -0.000066
Sum of atomic charges         :   -0.0000000

LOEWDIN ATOMIC CHARGES AND SPIN POPULATIONS
-------------------------------------------
   0 C :   -0.122603    0.885834
   1 C :   -0.014602    0.003725
   2 C :   -0.165702    0.042977
   3 C :    0.034555    0.026987
   4 C :   -0.015244    0.004799
   5 C :   -0.005328   -0.014143
   6 C :   -0.019418    0.008758
   7 C :    0.043636    0.035347
   8 H :    0.028179    0.002745
   9 H :    0.031637    0.003179
  10 C :   -0.033916    0.006754
  11 H :    0.046180    0.001800
  12 H :    0.046179    0.001822
  13 C :   -0.046272    0.001290
  14 H :    0.022348    0.000346
  15 H :    0.022358    0.000343
  16 C :   -0.046166    0.000179
  17 H :    0.025653    0.000032
  18 H :    0.025646    0.000032
  19 C :   -0.067753   -0.000000
  20 H :    0.024602    0.000006
  21 H :    0.024595    0.000007
  22 C :   -0.036798    0.001858
  23 H :    0.037092    0.000303
  24 H :    0.037085    0.000305
  25 C :   -0.043043    0.000002
  26 H :    0.026388    0.000002
  27 H :    0.026385    0.000003
  28 C :   -0.047222    0.000019
  29 H :    0.023555    0.000010
  30 H :    0.023552    0.000010
  31 C :   -0.066931    0.000011
  32 H :    0.026398    0.000000
  33 H :    0.026398    0.000000
  34 C :    0.005921   -0.010176
  35 H :    0.028078   -0.000006
  36 H :    0.027804   -0.000001
  37 C :   -0.057150    0.001315
  38 C :    0.006929   -0.002785
  39 C :   -0.020415    0.001101
  40 C :   -0.010160   -0.003135
  41 C :   -0.020565    0.001101
  42 C :    0.005992   -0.002774
  43 H :    0.031680   -0.000009
  44 H :    0.032323    0.000007
  45 H :    0.032909    0.000001
  46 H :    0.032830    0.000013
  47 H :    0.032403    0.000007

  Mayer bond orders larger than 0.100000
B(  0-C ,  2-C ) :   1.5757 B(  1-C ,  5-C ) :   0.9024 B(  1-C , 34-C ) :   1.7160
B(  1-C , 37-C ) :  -0.1799 B(  2-C ,  3-C ) :   1.2639 B(  2-C ,  7-C ) :   1.2373
B(  3-C ,  4-C ) :   1.4604 B(  3-C , 10-C ) :   1.0830 B(  4-C ,  5-C ) :   1.3544
B(  4-C ,  8-H ) :   0.9256 B(  5-C ,  6-C ) :   1.3625 B(  5-C , 34-C ) :  -0.1036
B(  6-C ,  7-C ) :   1.4623 B(  6-C , 22-C ) :   1.0897 B(  7-C ,  9-H ) :   0.9196
B( 10-C , 11-H ) :   0.8988 B( 10-C , 12-H ) :   0.8988 B( 10-C , 13-C ) :   1.0955
B( 13-C , 14-H ) :   0.9294 B( 13-C , 15-H ) :   0.9294 B( 13-C , 16-C ) :   1.0765
B( 16-C , 17-H ) :   0.9414 B( 16-C , 18-H ) :   0.9414 B( 16-C , 19-C ) :   1.1054
B( 19-C , 20-H ) :   0.9663 B( 19-C , 21-H ) :   0.9663 B( 19-C , 35-H ) :   0.9621
B( 22-C , 23-H ) :   0.8990 B( 22-C , 24-H ) :   0.8990 B( 22-C , 25-C ) :   1.1041
B( 25-C , 26-H ) :   0.9296 B( 25-C , 27-H ) :   0.9296 B( 25-C , 28-C ) :   1.0745
B( 28-C , 29-H ) :   0.9412 B( 28-C , 30-H ) :   0.9412 B( 28-C , 31-C ) :   1.1065
B( 31-C , 32-H ) :   0.9662 B( 31-C , 33-H ) :   0.9662 B( 31-C , 36-H ) :   0.9614
B( 34-C , 37-C ) :   0.9412 B( 37-C , 38-C ) :   1.4335 B( 37-C , 42-C ) :   1.4310
B( 38-C , 39-C ) :   1.4737 B( 38-C , 45-H ) :   0.9414 B( 39-C , 40-C ) :   1.4421
B( 39-C , 47-H ) :   0.9385 B( 40-C , 41-C ) :   1.4417 B( 40-C , 43-H ) :   0.9440
B( 41-C , 42-C ) :   1.4738 B( 41-C , 44-H ) :   0.9385 B( 42-C , 46-H ) :   0.9417

FINAL SINGLE POINT ENERGY      -890.742910780804

DIPOLE MOMENT
-------------
                                X             Y             Z
Electronic contribution:     13.62664      -0.23138       0.00087
Nuclear contribution   :    -10.82369       0.14307      -0.00029
                        -----------------------------------------
Total Dipole Moment    :      2.80296      -0.08831       0.00059
                        -----------------------------------------
Magnitude (a.u.)       :      2.80435
Magnitude (Debye)      :      7.12808

Rotational constants in cm-1:     0.006740     0.004685     0.002775
Rotational constants in MHz :   202.049713   140.466397    83.204171

CHEMICAL SHIELDING SUMMARY (ppm)  --  Orbital contribution
----------------------------------------------------------

  Nucleus  Element    Isotropic     Anisotropy
  -------  -------  ------------   ------------
      8       H           24.576         14.951
      9       H           14.715         16.068
     11       H           23.252         12.286
     12       H           23.227         12.315
     14       H           30.492          5.996
     15       H           30.494          5.992
     17       H           29.444          6.089
     18       H           29.446          6.094
     20       H           30.311          8.089
     21       H           30.312          8.089
     23       H           29.196          6.476
     24       H           29.195          6.490
     26       H           29.729          5.607
     27       H           29.728          5.618
     29       H           29.909          6.579
     30       H           29.909          6.581
     32       H           30.116          7.735
     33       H           30.116          7.735
     35       H           29.964         10.039
     36       H           30.029         10.249
     43       H           24.125          4.513
     44       H           24.147          5.577
     45       H           24.018          7.785
     46       H           24.050          8.008
     47       H           24.155          5.342

                             ****ORCA TERMINATED NORMALLY****
TOTAL RUN TIME: 0 days 1 hours 16 minutes 31 seconds 604 msec
