                         Program Version 5.0.4 -  RELEASE  -
|  1> ! B3LYP cc-pVDZ AUTOAUX
|  2> %pal nprocs 16 end
|  3> *XYZFile 0 2 opt_cc-pVDZ.xyz
|  4> %EPRNMR
|  5>         GTENSOR   TRUE
|  6>         NUCLEI    = ALL H {SHIFT, AISO, ADIP, AORB}
|  7>         ORI       GIAO
|  8> END
|  9>
| 10>                          ****END OF INPUT****

CARTESIAN COORDINATES (ANGSTROEM)
---------------------------------
  C     -2.775454    0.046275   -0.011726
  C      2.820068    0.009333   -0.009158
  C     -1.416146   -0.010335   -0.011342
  C     -0.684837   -1.267641   -0.014396
  C      0.690339   -1.196565   -0.013408
  C      1.406827    0.035857   -0.009714
  C      0.687718    1.279494   -0.006700
  C     -0.690447    1.243934   -0.007612
  H      1.276950   -2.115896   -0.015553
  H     -1.268546    2.167020   -0.005471
  C     -1.481022   -2.556034   -0.018581
  H     -2.154921   -2.540923   -0.897144
  H     -2.157653   -2.544895    0.857940
  C     -0.681530   -3.861383   -0.020319
  H     -0.018124   -3.891105   -0.904067
  H     -0.020937   -3.895116    0.865395
  C     -1.579795   -5.104335   -0.024627
  H     -2.246941   -5.074228    0.856665
  H     -2.243926   -5.070281   -0.908053
  C     -0.790484   -6.415794   -0.026231
  H     -0.143479   -6.495089    0.864444
  H     -0.139948   -6.490764   -0.914705
  C      1.466081    2.581276   -0.002730
  H      2.141262    2.571205    0.872678
  H      2.142868    2.575547   -0.876932
  C      0.653453    3.878247   -0.000274
  H     -0.008242    3.909004   -0.885502
  H     -0.010013    3.904631    0.883765
  C      1.541182    5.128985    0.003735
  H      2.206071    5.100030    0.886928
  H      2.208047    5.104274   -0.878097
  C      0.742021    6.434527    0.005993
  H      0.091320    6.504280    0.894721
  H      0.093798    6.508891   -0.884172
  C      4.045944   -0.034404   -0.010004
  H     -1.461297   -7.290069   -0.029689
  H      1.405900    7.314173    0.009201
  C      5.469023   -0.089649   -0.009731
  C      6.140681   -1.333721   -0.012315
  C      7.533655   -1.383691   -0.012033
  C      8.284442   -0.202048   -0.009208
  C      7.630240    1.035744   -0.006660
  C      6.237715    1.096870   -0.006921
  H      9.376025   -0.245728   -0.009002
  H      8.211088    1.961246   -0.004455
  H      5.553377   -2.253884   -0.014518
  H      5.725928    2.061099   -0.004950
  H      8.038991   -2.352498   -0.014040

 Total Charge           Charge          ....    0
 Multiplicity           Mult            ....    2
 Number of Electrons    NEL             ....  163
 Basis Dimension        Dim             ....  447

ORBITAL ENERGIES
----------------
                 SPIN UP ORBITALS
  NO   OCC          E(Eh)            E(eV)
   0   1.0000     -10.241480      -278.6848
   1   1.0000     -10.232490      -278.4402
   2   1.0000     -10.217059      -278.0203
   3   1.0000     -10.214836      -277.9598
   4   1.0000     -10.213503      -277.9235
   5   1.0000     -10.213383      -277.9203
   6   1.0000     -10.211742      -277.8756
   7   1.0000     -10.210624      -277.8452
   8   1.0000     -10.209692      -277.8198
   9   1.0000     -10.209595      -277.8172
  10   1.0000     -10.208418      -277.7852
  11   1.0000     -10.206741      -277.7395
  12   1.0000     -10.202552      -277.6255
  13   1.0000     -10.194297      -277.4009
  14   1.0000     -10.187807      -277.2243
  15   1.0000     -10.187140      -277.2062
  16   1.0000     -10.186342      -277.1845
  17   1.0000     -10.182993      -277.0933
  18   1.0000     -10.181812      -277.0612
  19   1.0000     -10.178416      -276.9688
  20   1.0000     -10.176870      -276.9267
  21   1.0000     -10.176105      -276.9059
  22   1.0000     -10.164449      -276.5887
  23   1.0000      -0.881995       -24.0003
  24   1.0000      -0.878142       -23.8955
  25   1.0000      -0.823583       -22.4108
  26   1.0000      -0.808465       -21.9994
  27   1.0000      -0.796981       -21.6870
  28   1.0000      -0.786640       -21.4056
  29   1.0000      -0.772690       -21.0260
  30   1.0000      -0.765936       -20.8422
  31   1.0000      -0.741913       -20.1885
  32   1.0000      -0.733226       -19.9521
  33   1.0000      -0.705047       -19.1853
  34   1.0000      -0.674913       -18.3653
  35   1.0000      -0.656541       -17.8654
  36   1.0000      -0.634911       -17.2768
  37   1.0000      -0.625086       -17.0095
  38   1.0000      -0.623696       -16.9716
  39   1.0000      -0.597687       -16.2639
  40   1.0000      -0.582416       -15.8484
  41   1.0000      -0.566976       -15.4282
  42   1.0000      -0.556288       -15.1374
  43   1.0000      -0.534408       -14.5420
  44   1.0000      -0.518877       -14.1194
  45   1.0000      -0.494712       -13.4618
  46   1.0000      -0.483447       -13.1553
  47   1.0000      -0.476189       -12.9578
  48   1.0000      -0.472826       -12.8662
  49   1.0000      -0.471301       -12.8248
  50   1.0000      -0.450471       -12.2580
  51   1.0000      -0.440286       -11.9808
  52   1.0000      -0.438622       -11.9355
  53   1.0000      -0.429278       -11.6812
  54   1.0000      -0.428430       -11.6582
  55   1.0000      -0.426112       -11.5951
  56   1.0000      -0.419006       -11.4017
  57   1.0000      -0.414179       -11.2704
  58   1.0000      -0.410169       -11.1613
  59   1.0000      -0.398421       -10.8416
  60   1.0000      -0.382489       -10.4080
  61   1.0000      -0.376552       -10.2465
  62   1.0000      -0.375220       -10.2103
  63   1.0000      -0.369085       -10.0433
  64   1.0000      -0.366411        -9.9706
  65   1.0000      -0.364052        -9.9064
  66   1.0000      -0.360270        -9.8034
  67   1.0000      -0.348416        -9.4809
  68   1.0000      -0.336984        -9.1698
  69   1.0000      -0.332665        -9.0523
  70   1.0000      -0.330697        -8.9987
  71   1.0000      -0.329084        -8.9548
  72   1.0000      -0.327205        -8.9037
  73   1.0000      -0.324057        -8.8180
  74   1.0000      -0.322611        -8.7787
  75   1.0000      -0.288916        -7.8618
  76   1.0000      -0.286403        -7.7934
  77   1.0000      -0.273325        -7.4376
  78   1.0000      -0.257335        -7.0024
  79   1.0000      -0.242290        -6.5930
  80   1.0000      -0.234051        -6.3689
  81   1.0000      -0.157561        -4.2874
  82   0.0000      -0.110360        -3.0031
  83   0.0000      -0.041072        -1.1176
  84   0.0000      -0.024593        -0.6692
  85   0.0000      -0.007798        -0.2122
  86   0.0000       0.026575         0.7231

                 SPIN DOWN ORBITALS
  NO   OCC          E(Eh)            E(eV)
   0   1.0000     -10.241760      -278.6925
   1   1.0000     -10.232446      -278.4390
   2   1.0000     -10.215947      -277.9900
   3   1.0000     -10.215026      -277.9650
   4   1.0000     -10.213555      -277.9250
   5   1.0000     -10.213436      -277.9217
   6   1.0000     -10.211797      -277.8771
   7   1.0000     -10.210334      -277.8373
   8   1.0000     -10.209667      -277.8192
   9   1.0000     -10.209570      -277.8165
  10   1.0000     -10.208320      -277.7825
  11   1.0000     -10.205373      -277.7023
  12   1.0000     -10.202437      -277.6224
  13   1.0000     -10.194242      -277.3994
  14   1.0000     -10.187673      -277.2207
  15   1.0000     -10.187140      -277.2062
  16   1.0000     -10.186342      -277.1845
  17   1.0000     -10.182970      -277.0927
  18   1.0000     -10.181808      -277.0611
  19   1.0000     -10.178416      -276.9688
  20   1.0000     -10.177753      -276.9507
  21   1.0000     -10.176105      -276.9059
  22   1.0000     -10.150632      -276.2127
  23   1.0000      -0.881168       -23.9778
  24   1.0000      -0.877675       -23.8827
  25   1.0000      -0.822027       -22.3685
  26   1.0000      -0.808028       -21.9876
  27   1.0000      -0.796686       -21.6789
  28   1.0000      -0.783807       -21.3285
  29   1.0000      -0.771932       -21.0053
  30   1.0000      -0.765983       -20.8435
  31   1.0000      -0.738557       -20.0972
  32   1.0000      -0.733002       -19.9460
  33   1.0000      -0.704191       -19.1620
  34   1.0000      -0.667424       -18.1615
  35   1.0000      -0.655751       -17.8439
  36   1.0000      -0.632690       -17.2164
  37   1.0000      -0.624837       -17.0027
  38   1.0000      -0.623727       -16.9725
  39   1.0000      -0.595925       -16.2159
  40   1.0000      -0.581805       -15.8317
  41   1.0000      -0.566291       -15.4096
  42   1.0000      -0.554586       -15.0911
  43   1.0000      -0.524056       -14.2603
  44   1.0000      -0.516832       -14.0637
  45   1.0000      -0.494519       -13.4565
  46   1.0000      -0.479329       -13.0432
  47   1.0000      -0.476168       -12.9572
  48   1.0000      -0.472521       -12.8579
  49   1.0000      -0.471244       -12.8232
  50   1.0000      -0.450452       -12.2574
  51   1.0000      -0.438850       -11.9417
  52   1.0000      -0.438591       -11.9347
  53   1.0000      -0.428419       -11.6579
  54   1.0000      -0.428038       -11.6475
  55   1.0000      -0.425791       -11.5864
  56   1.0000      -0.418902       -11.3989
  57   1.0000      -0.413695       -11.2572
  58   1.0000      -0.406919       -11.0728
  59   1.0000      -0.398675       -10.8485
  60   1.0000      -0.382567       -10.4102
  61   1.0000      -0.376078       -10.2336
  62   1.0000      -0.373592       -10.1660
  63   1.0000      -0.368383       -10.0242
  64   1.0000      -0.365584        -9.9480
  65   1.0000      -0.362758        -9.8712
  66   1.0000      -0.360111        -9.7991
  67   1.0000      -0.348609        -9.4861
  68   1.0000      -0.336891        -9.1673
  69   1.0000      -0.332283        -9.0419
  70   1.0000      -0.330337        -8.9889
  71   1.0000      -0.328952        -8.9512
  72   1.0000      -0.327224        -8.9042
  73   1.0000      -0.322598        -8.7783
  74   1.0000      -0.322551        -8.7771
  75   1.0000      -0.287988        -7.8366
  76   1.0000      -0.286335        -7.7916
  77   1.0000      -0.273458        -7.4412
  78   1.0000      -0.256685        -6.9847
  79   1.0000      -0.232745        -6.3333
  80   1.0000      -0.219123        -5.9626
  81   0.0000      -0.104302        -2.8382
  82   0.0000      -0.038517        -1.0481
  83   0.0000      -0.024725        -0.6728
  84   0.0000      -0.007173        -0.1952
  85   0.0000      -0.004005        -0.1090

MULLIKEN ATOMIC CHARGES AND SPIN POPULATIONS
--------------------------------------------
   0 C :   -0.252095    0.991294
   1 C :    0.283396    0.007790
   2 C :    0.002843   -0.058445
   3 C :   -0.042969    0.022966
   4 C :    0.006851    0.005231
   5 C :   -0.165226   -0.019752
   6 C :   -0.071421    0.009740
   7 C :    0.053053    0.032577
   8 H :   -0.052508    0.003920
   9 H :   -0.040450    0.004799
  10 C :    0.049401    0.010824
  11 H :    0.043172    0.000820
  12 H :    0.043193    0.000853
  13 C :   -0.040448    0.001041
  14 H :    0.012427    0.000468
  15 H :    0.012383    0.000464
  16 C :   -0.024985    0.000042
  17 H :    0.009205    0.000066
  18 H :    0.009188    0.000065
  19 C :    0.001871   -0.000022
  20 H :    0.015908   -0.000001
  21 H :    0.015882   -0.000001
  22 C :    0.036806    0.002146
  23 H :    0.030105    0.000332
  24 H :    0.030099    0.000335
  25 C :   -0.035914   -0.000066
  26 H :    0.020587   -0.000018
  27 H :    0.020614   -0.000018
  28 C :   -0.027070   -0.000058
  29 H :    0.005059    0.000004
  30 H :    0.005054    0.000004
  31 C :    0.003197    0.000024
  32 H :    0.019775   -0.000000
  33 H :    0.019784   -0.000000
  34 C :    0.174771   -0.013188
  35 H :    0.014234   -0.000014
  36 H :    0.013159   -0.000003
  37 C :   -0.263415    0.002803
  38 C :    0.035588   -0.003543
  39 C :    0.041646    0.001864
  40 C :    0.038433   -0.004023
  41 C :    0.041411    0.001864
  42 C :    0.032980   -0.003547
  43 H :   -0.019307    0.000180
  44 H :   -0.020417   -0.000068
  45 H :   -0.033109    0.000147
  46 H :   -0.032403    0.000172
  47 H :   -0.020337   -0.000068
Sum of atomic charges         :   -0.0000000

LOEWDIN ATOMIC CHARGES AND SPIN POPULATIONS
-------------------------------------------
   0 C :   -0.122655    0.885834
   1 C :   -0.014534    0.003692
   2 C :   -0.165736    0.042945
   3 C :    0.034505    0.027008
   4 C :   -0.015239    0.004782
   5 C :   -0.005218   -0.014098
   6 C :   -0.019375    0.008750
   7 C :    0.043642    0.035336
   8 H :    0.028179    0.002743
   9 H :    0.031633    0.003178
  10 C :   -0.033935    0.006752
  11 H :    0.046184    0.001800
  12 H :    0.046185    0.001823
  13 C :   -0.046262    0.001289
  14 H :    0.022350    0.000346
  15 H :    0.022360    0.000343
  16 C :   -0.046164    0.000179
  17 H :    0.025652    0.000032
  18 H :    0.025645    0.000032
  19 C :   -0.067752   -0.000000
  20 H :    0.024602    0.000006
  21 H :    0.024595    0.000007
  22 C :   -0.036798    0.001855
  23 H :    0.037094    0.000303
  24 H :    0.037086    0.000305
  25 C :   -0.043047    0.000002
  26 H :    0.026386    0.000002
  27 H :    0.026384    0.000003
  28 C :   -0.047222    0.000019
  29 H :    0.023556    0.000010
  30 H :    0.023553    0.000010
  31 C :   -0.066935    0.000011
  32 H :    0.026397    0.000000
  33 H :    0.026398    0.000000
  34 C :    0.005866   -0.010137
  35 H :    0.028078   -0.000006
  36 H :    0.027804   -0.000001
  37 C :   -0.057122    0.001313
  38 C :    0.006914   -0.002788
  39 C :   -0.020431    0.001107
  40 C :   -0.010201   -0.003136
  41 C :   -0.020579    0.001108
  42 C :    0.005986   -0.002776
  43 H :    0.031687   -0.000009
  44 H :    0.032328    0.000007
  45 H :    0.032912    0.000001
  46 H :    0.032836    0.000014
  47 H :    0.032408    0.000007

  Mayer bond orders larger than 0.100000
B(  0-C ,  2-C ) :   1.5756 B(  1-C ,  5-C ) :   0.9025 B(  1-C , 34-C ) :   1.7161
B(  1-C , 37-C ) :  -0.1798 B(  2-C ,  3-C ) :   1.2639 B(  2-C ,  7-C ) :   1.2373
B(  3-C ,  4-C ) :   1.4604 B(  3-C , 10-C ) :   1.0831 B(  4-C ,  5-C ) :   1.3543
B(  4-C ,  8-H ) :   0.9256 B(  5-C ,  6-C ) :   1.3624 B(  5-C , 34-C ) :  -0.1036
B(  6-C ,  7-C ) :   1.4624 B(  6-C , 22-C ) :   1.0897 B(  7-C ,  9-H ) :   0.9196
B( 10-C , 11-H ) :   0.8988 B( 10-C , 12-H ) :   0.8988 B( 10-C , 13-C ) :   1.0955
B( 13-C , 14-H ) :   0.9294 B( 13-C , 15-H ) :   0.9294 B( 13-C , 16-C ) :   1.0765
B( 16-C , 17-H ) :   0.9414 B( 16-C , 18-H ) :   0.9414 B( 16-C , 19-C ) :   1.1054
B( 19-C , 20-H ) :   0.9663 B( 19-C , 21-H ) :   0.9663 B( 19-C , 35-H ) :   0.9621
B( 22-C , 23-H ) :   0.8990 B( 22-C , 24-H ) :   0.8990 B( 22-C , 25-C ) :   1.1040
B( 25-C , 26-H ) :   0.9296 B( 25-C , 27-H ) :   0.9296 B( 25-C , 28-C ) :   1.0745
B( 28-C , 29-H ) :   0.9412 B( 28-C , 30-H ) :   0.9412 B( 28-C , 31-C ) :   1.1065
B( 31-C , 32-H ) :   0.9662 B( 31-C , 33-H ) :   0.9662 B( 31-C , 36-H ) :   0.9614
B( 34-C , 37-C ) :   0.9412 B( 37-C , 38-C ) :   1.4335 B( 37-C , 42-C ) :   1.4310
B( 38-C , 39-C ) :   1.4737 B( 38-C , 45-H ) :   0.9414 B( 39-C , 40-C ) :   1.4421
B( 39-C , 47-H ) :   0.9385 B( 40-C , 41-C ) :   1.4417 B( 40-C , 43-H ) :   0.9440
B( 41-C , 42-C ) :   1.4738 B( 41-C , 44-H ) :   0.9385 B( 42-C , 46-H ) :   0.9417

FINAL SINGLE POINT ENERGY      -890.742917446867

DIPOLE MOMENT
-------------
                                X             Y             Z
Electronic contribution:     13.62461      -0.23043       0.00084
Nuclear contribution   :    -10.82152       0.14233      -0.00026
                        -----------------------------------------
Total Dipole Moment    :      2.80309      -0.08810       0.00058
                        -----------------------------------------
Magnitude (a.u.)       :      2.80447
Magnitude (Debye)      :      7.12841

Rotational constants in cm-1:     0.006741     0.004685     0.002775
Rotational constants in MHz :   202.092440   140.449518    83.205489

CHEMICAL SHIELDING SUMMARY (ppm)  --  Orbital contribution
----------------------------------------------------------

  Nucleus  Element    Isotropic     Anisotropy
  -------  -------  ------------   ------------
      8       H           24.582         14.950
      9       H           14.662         15.971
     11       H           23.227         12.332
     12       H           23.201         12.359
     14       H           30.496          6.005
     15       H           30.497          6.004
     17       H           29.440          6.083
     18       H           29.442          6.090
     20       H           30.311          8.092
     21       H           30.311          8.091
     23       H           29.199          6.476
     24       H           29.198          6.494
     26       H           29.730          5.614
     27       H           29.729          5.627
     29       H           29.911          6.581
     30       H           29.911          6.585
     32       H           30.117          7.732
     33       H           30.117          7.731
     35       H           29.963         10.040
     36       H           30.030         10.248
     43       H           24.119          4.526
     44       H           24.143          5.587
     45       H           24.027          7.776
     46       H           24.052          8.007
     47       H           24.155          5.343

                             ****ORCA TERMINATED NORMALLY****
TOTAL RUN TIME: 0 days 1 hours 14 minutes 55 seconds 994 msec
