                         Program Version 5.0.4 -  RELEASE  -
|  1> ! B3LYP cc-pVDZ AUTOAUX
|  2> %pal nprocs 16 end
|  3> *XYZFile 0 2 opt.xyz
|  4> %EPRNMR
|  5>         GTENSOR   TRUE
|  6>         NUCLEI    = ALL H {SHIFT, AISO, ADIP, AORB}
|  7>         ORI       CenterOfElCharge
|  8> END
|  9>
| 10>                          ****END OF INPUT****

CARTESIAN COORDINATES (ANGSTROEM)
---------------------------------
  C     -2.775358    0.046208   -0.011751
  C      2.820255    0.009685   -0.009139
  C     -1.416126   -0.010274   -0.011347
  C     -0.684648   -1.267420   -0.014386
  C      0.690490   -1.196208   -0.013389
  C      1.407047    0.036197   -0.009702
  C      0.687689    1.279681   -0.006696
  C     -0.690449    1.243926   -0.007610
  H      1.277162   -2.115524   -0.015523
  H     -1.268852    2.166837   -0.005472
  C     -1.480792   -2.555886   -0.018568
  H     -2.154671   -2.540740   -0.897146
  H     -2.157395   -2.544715    0.857974
  C     -0.681275   -3.861204   -0.020309
  H     -0.017862   -3.890851   -0.904058
  H     -0.020683   -3.894869    0.865412
  C     -1.579450   -5.104210   -0.024628
  H     -2.246605   -5.074150    0.856659
  H     -2.243576   -5.070198   -0.908059
  C     -0.790051   -6.415615   -0.026228
  H     -0.143052   -6.494872    0.864454
  H     -0.139497   -6.490536   -0.914694
  C      1.465882    2.581608   -0.002726
  H      2.141040    2.571608    0.872700
  H      2.142655    2.575943   -0.876938
  C      0.653075    3.878460   -0.000281
  H     -0.008622    3.909115   -0.885508
  H     -0.010403    3.904750    0.883750
  C      1.540606    5.129343    0.003729
  H      2.205493    5.100499    0.886927
  H      2.207479    5.104735   -0.878099
  C      0.741236    6.434757    0.005976
  H      0.090513    6.504407    0.894697
  H      0.093010    6.509016   -0.884195
  C      4.046121   -0.034213   -0.010003
  H     -1.460807   -7.289936   -0.029701
  H      1.404972    7.314510    0.009190
  C      5.469175   -0.089851   -0.009729
  C      6.140470   -1.334126   -0.012366
  C      7.533422   -1.384522   -0.012085
  C      8.284577   -0.203110   -0.009213
  C      7.630744    1.034879   -0.006618
  C      6.238242    1.096428   -0.006877
  H      9.376146   -0.247118   -0.009009
  H      8.211876    1.960203   -0.004379
  H      5.552872   -2.254102   -0.014605
  H      5.726741    2.060809   -0.004870
  H      8.038460   -2.353485   -0.014131

 Total Charge           Charge          ....    0
 Multiplicity           Mult            ....    2
 Number of Electrons    NEL             ....  163
 Basis Dimension        Dim             ....  447

ORBITAL ENERGIES
----------------
                 SPIN UP ORBITALS
  NO   OCC          E(Eh)            E(eV)
   0   1.0000     -10.241494      -278.6852
   1   1.0000     -10.232493      -278.4403
   2   1.0000     -10.217048      -278.0200
   3   1.0000     -10.214846      -277.9601
   4   1.0000     -10.213500      -277.9235
   5   1.0000     -10.213387      -277.9204
   6   1.0000     -10.211743      -277.8757
   7   1.0000     -10.210626      -277.8453
   8   1.0000     -10.209694      -277.8199
   9   1.0000     -10.209596      -277.8172
  10   1.0000     -10.208437      -277.7857
  11   1.0000     -10.206736      -277.7394
  12   1.0000     -10.202541      -277.6253
  13   1.0000     -10.194297      -277.4009
  14   1.0000     -10.187796      -277.2240
  15   1.0000     -10.187134      -277.2060
  16   1.0000     -10.186339      -277.1844
  17   1.0000     -10.182987      -277.0932
  18   1.0000     -10.181811      -277.0612
  19   1.0000     -10.178416      -276.9688
  20   1.0000     -10.176876      -276.9269
  21   1.0000     -10.176105      -276.9059
  22   1.0000     -10.164466      -276.5892
  23   1.0000      -0.882005       -24.0006
  24   1.0000      -0.878147       -23.8956
  25   1.0000      -0.823587       -22.4109
  26   1.0000      -0.808471       -21.9996
  27   1.0000      -0.796980       -21.6869
  28   1.0000      -0.786654       -21.4059
  29   1.0000      -0.772687       -21.0259
  30   1.0000      -0.765938       -20.8422
  31   1.0000      -0.741926       -20.1888
  32   1.0000      -0.733226       -19.9521
  33   1.0000      -0.705046       -19.1853
  34   1.0000      -0.674934       -18.3659
  35   1.0000      -0.656539       -17.8653
  36   1.0000      -0.634916       -17.2769
  37   1.0000      -0.625085       -17.0094
  38   1.0000      -0.623696       -16.9716
  39   1.0000      -0.597688       -16.2639
  40   1.0000      -0.582413       -15.8483
  41   1.0000      -0.566972       -15.4281
  42   1.0000      -0.556299       -15.1377
  43   1.0000      -0.534437       -14.5428
  44   1.0000      -0.518878       -14.1194
  45   1.0000      -0.494717       -13.4619
  46   1.0000      -0.483458       -13.1556
  47   1.0000      -0.476187       -12.9577
  48   1.0000      -0.472828       -12.8663
  49   1.0000      -0.471299       -12.8247
  50   1.0000      -0.450472       -12.2580
  51   1.0000      -0.440266       -11.9802
  52   1.0000      -0.438622       -11.9355
  53   1.0000      -0.429270       -11.6810
  54   1.0000      -0.428432       -11.6582
  55   1.0000      -0.426113       -11.5951
  56   1.0000      -0.419006       -11.4017
  57   1.0000      -0.414174       -11.2703
  58   1.0000      -0.410182       -11.1616
  59   1.0000      -0.398424       -10.8417
  60   1.0000      -0.382493       -10.4082
  61   1.0000      -0.376548       -10.2464
  62   1.0000      -0.375216       -10.2102
  63   1.0000      -0.369083       -10.0432
  64   1.0000      -0.366412        -9.9706
  65   1.0000      -0.364050        -9.9063
  66   1.0000      -0.360270        -9.8034
  67   1.0000      -0.348419        -9.4810
  68   1.0000      -0.336983        -9.1698
  69   1.0000      -0.332661        -9.0522
  70   1.0000      -0.330706        -8.9990
  71   1.0000      -0.329080        -8.9547
  72   1.0000      -0.327203        -8.9036
  73   1.0000      -0.324049        -8.8178
  74   1.0000      -0.322609        -8.7786
  75   1.0000      -0.288926        -7.8621
  76   1.0000      -0.286411        -7.7936
  77   1.0000      -0.273327        -7.4376
  78   1.0000      -0.257335        -7.0024
  79   1.0000      -0.242305        -6.5934
  80   1.0000      -0.234061        -6.3691
  81   1.0000      -0.157572        -4.2877
  82   0.0000      -0.110373        -3.0034
  83   0.0000      -0.041078        -1.1178
  84   0.0000      -0.024592        -0.6692
  85   0.0000      -0.007787        -0.2119
  86   0.0000       0.026571         0.7230

                 SPIN DOWN ORBITALS
  NO   OCC          E(Eh)            E(eV)
   0   1.0000     -10.241774      -278.6928
   1   1.0000     -10.232449      -278.4391
   2   1.0000     -10.215935      -277.9897
   3   1.0000     -10.215037      -277.9653
   4   1.0000     -10.213553      -277.9249
   5   1.0000     -10.213439      -277.9218
   6   1.0000     -10.211798      -277.8772
   7   1.0000     -10.210336      -277.8374
   8   1.0000     -10.209668      -277.8192
   9   1.0000     -10.209571      -277.8166
  10   1.0000     -10.208339      -277.7830
  11   1.0000     -10.205368      -277.7022
  12   1.0000     -10.202427      -277.6221
  13   1.0000     -10.194242      -277.3994
  14   1.0000     -10.187662      -277.2204
  15   1.0000     -10.187134      -277.2060
  16   1.0000     -10.186339      -277.1844
  17   1.0000     -10.182964      -277.0925
  18   1.0000     -10.181807      -277.0611
  19   1.0000     -10.178416      -276.9688
  20   1.0000     -10.177758      -276.9509
  21   1.0000     -10.176105      -276.9059
  22   1.0000     -10.150649      -276.2132
  23   1.0000      -0.881176       -23.9780
  24   1.0000      -0.877681       -23.8829
  25   1.0000      -0.822029       -22.3685
  26   1.0000      -0.808034       -21.9877
  27   1.0000      -0.796685       -21.6789
  28   1.0000      -0.783821       -21.3289
  29   1.0000      -0.771928       -21.0052
  30   1.0000      -0.765985       -20.8435
  31   1.0000      -0.738569       -20.0975
  32   1.0000      -0.733003       -19.9460
  33   1.0000      -0.704191       -19.1620
  34   1.0000      -0.667444       -18.1621
  35   1.0000      -0.655748       -17.8438
  36   1.0000      -0.632695       -17.2165
  37   1.0000      -0.624835       -17.0026
  38   1.0000      -0.623727       -16.9725
  39   1.0000      -0.595926       -16.2160
  40   1.0000      -0.581802       -15.8316
  41   1.0000      -0.566288       -15.4095
  42   1.0000      -0.554593       -15.0912
  43   1.0000      -0.524088       -14.2612
  44   1.0000      -0.516834       -14.0638
  45   1.0000      -0.494525       -13.4567
  46   1.0000      -0.479339       -13.0435
  47   1.0000      -0.476166       -12.9571
  48   1.0000      -0.472523       -12.8580
  49   1.0000      -0.471241       -12.8231
  50   1.0000      -0.450453       -12.2574
  51   1.0000      -0.438836       -11.9413
  52   1.0000      -0.438587       -11.9346
  53   1.0000      -0.428422       -11.6579
  54   1.0000      -0.428032       -11.6473
  55   1.0000      -0.425791       -11.5864
  56   1.0000      -0.418902       -11.3989
  57   1.0000      -0.413690       -11.2571
  58   1.0000      -0.406932       -11.0732
  59   1.0000      -0.398679       -10.8486
  60   1.0000      -0.382571       -10.4103
  61   1.0000      -0.376081       -10.2337
  62   1.0000      -0.373583       -10.1657
  63   1.0000      -0.368380       -10.0241
  64   1.0000      -0.365584        -9.9480
  65   1.0000      -0.362757        -9.8711
  66   1.0000      -0.360111        -9.7991
  67   1.0000      -0.348612        -9.4862
  68   1.0000      -0.336890        -9.1672
  69   1.0000      -0.332279        -9.0418
  70   1.0000      -0.330345        -8.9892
  71   1.0000      -0.328948        -8.9511
  72   1.0000      -0.327222        -8.9042
  73   1.0000      -0.322595        -8.7783
  74   1.0000      -0.322542        -8.7768
  75   1.0000      -0.287999        -7.8368
  76   1.0000      -0.286342        -7.7918
  77   1.0000      -0.273460        -7.4412
  78   1.0000      -0.256684        -6.9847
  79   1.0000      -0.232755        -6.3336
  80   1.0000      -0.219136        -5.9630
  81   0.0000      -0.104315        -2.8386
  82   0.0000      -0.038522        -1.0482
  83   0.0000      -0.024724        -0.6728
  84   0.0000      -0.007161        -0.1949
  85   0.0000      -0.004017        -0.1093

MULLIKEN ATOMIC CHARGES AND SPIN POPULATIONS
--------------------------------------------
   0 C :   -0.252090    0.991283
   1 C :    0.283482    0.007791
   2 C :    0.002835   -0.058445
   3 C :   -0.042978    0.022967
   4 C :    0.006823    0.005231
   5 C :   -0.165213   -0.019755
   6 C :   -0.071404    0.009742
   7 C :    0.053062    0.032580
   8 H :   -0.052517    0.003920
   9 H :   -0.040463    0.004803
  10 C :    0.049395    0.010826
  11 H :    0.043170    0.000819
  12 H :    0.043191    0.000853
  13 C :   -0.040438    0.001041
  14 H :    0.012424    0.000468
  15 H :    0.012381    0.000464
  16 C :   -0.024984    0.000042
  17 H :    0.009205    0.000066
  18 H :    0.009188    0.000065
  19 C :    0.001871   -0.000022
  20 H :    0.015907   -0.000001
  21 H :    0.015882   -0.000001
  22 C :    0.036791    0.002147
  23 H :    0.030102    0.000332
  24 H :    0.030097    0.000335
  25 C :   -0.035906   -0.000066
  26 H :    0.020585   -0.000018
  27 H :    0.020612   -0.000018
  28 C :   -0.027071   -0.000058
  29 H :    0.005058    0.000004
  30 H :    0.005054    0.000004
  31 C :    0.003195    0.000024
  32 H :    0.019775   -0.000000
  33 H :    0.019784   -0.000000
  34 C :    0.174737   -0.013186
  35 H :    0.014234   -0.000014
  36 H :    0.013160   -0.000003
  37 C :   -0.263425    0.002803
  38 C :    0.035578   -0.003543
  39 C :    0.041650    0.001864
  40 C :    0.038435   -0.004023
  41 C :    0.041412    0.001864
  42 C :    0.032986   -0.003547
  43 H :   -0.019307    0.000180
  44 H :   -0.020416   -0.000067
  45 H :   -0.033107    0.000147
  46 H :   -0.032406    0.000172
  47 H :   -0.020337   -0.000068
Sum of atomic charges         :   -0.0000000

LOEWDIN ATOMIC CHARGES AND SPIN POPULATIONS
-------------------------------------------
   0 C :   -0.122632    0.885801
   1 C :   -0.014542    0.003692
   2 C :   -0.165786    0.042968
   3 C :    0.034505    0.027009
   4 C :   -0.015232    0.004781
   5 C :   -0.005223   -0.014098
   6 C :   -0.019370    0.008750
   7 C :    0.043641    0.035339
   8 H :    0.028179    0.002743
   9 H :    0.031636    0.003181
  10 C :   -0.033927    0.006754
  11 H :    0.046180    0.001801
  12 H :    0.046181    0.001823
  13 C :   -0.046268    0.001290
  14 H :    0.022350    0.000346
  15 H :    0.022361    0.000343
  16 C :   -0.046166    0.000179
  17 H :    0.025652    0.000032
  18 H :    0.025645    0.000032
  19 C :   -0.067752   -0.000000
  20 H :    0.024602    0.000006
  21 H :    0.024595    0.000007
  22 C :   -0.036794    0.001855
  23 H :    0.037091    0.000303
  24 H :    0.037084    0.000305
  25 C :   -0.043048    0.000002
  26 H :    0.026386    0.000002
  27 H :    0.026383    0.000003
  28 C :   -0.047223    0.000019
  29 H :    0.023555    0.000010
  30 H :    0.023552    0.000010
  31 C :   -0.066935    0.000011
  32 H :    0.026398    0.000000
  33 H :    0.026398    0.000000
  34 C :    0.005890   -0.010137
  35 H :    0.028078   -0.000006
  36 H :    0.027805   -0.000001
  37 C :   -0.057122    0.001313
  38 C :    0.006919   -0.002788
  39 C :   -0.020431    0.001107
  40 C :   -0.010196   -0.003136
  41 C :   -0.020579    0.001108
  42 C :    0.005987   -0.002776
  43 H :    0.031687   -0.000009
  44 H :    0.032328    0.000007
  45 H :    0.032913    0.000001
  46 H :    0.032834    0.000014
  47 H :    0.032409    0.000007

  Mayer bond orders larger than 0.100000
B(  0-C ,  2-C ) :   1.5757 B(  1-C ,  5-C ) :   0.9024 B(  1-C , 34-C ) :   1.7160
B(  1-C , 37-C ) :  -0.1799 B(  2-C ,  3-C ) :   1.2639 B(  2-C ,  7-C ) :   1.2373
B(  3-C ,  4-C ) :   1.4604 B(  3-C , 10-C ) :   1.0830 B(  4-C ,  5-C ) :   1.3543
B(  4-C ,  8-H ) :   0.9256 B(  5-C ,  6-C ) :   1.3624 B(  5-C , 34-C ) :  -0.1036
B(  6-C ,  7-C ) :   1.4623 B(  6-C , 22-C ) :   1.0897 B(  7-C ,  9-H ) :   0.9196
B( 10-C , 11-H ) :   0.8988 B( 10-C , 12-H ) :   0.8988 B( 10-C , 13-C ) :   1.0955
B( 13-C , 14-H ) :   0.9294 B( 13-C , 15-H ) :   0.9294 B( 13-C , 16-C ) :   1.0765
B( 16-C , 17-H ) :   0.9414 B( 16-C , 18-H ) :   0.9414 B( 16-C , 19-C ) :   1.1054
B( 19-C , 20-H ) :   0.9663 B( 19-C , 21-H ) :   0.9663 B( 19-C , 35-H ) :   0.9621
B( 22-C , 23-H ) :   0.8990 B( 22-C , 24-H ) :   0.8990 B( 22-C , 25-C ) :   1.1041
B( 25-C , 26-H ) :   0.9296 B( 25-C , 27-H ) :   0.9296 B( 25-C , 28-C ) :   1.0745
B( 28-C , 29-H ) :   0.9412 B( 28-C , 30-H ) :   0.9412 B( 28-C , 31-C ) :   1.1065
B( 31-C , 32-H ) :   0.9662 B( 31-C , 33-H ) :   0.9662 B( 31-C , 36-H ) :   0.9614
B( 34-C , 37-C ) :   0.9412 B( 37-C , 38-C ) :   1.4335 B( 37-C , 42-C ) :   1.4310
B( 38-C , 39-C ) :   1.4737 B( 38-C , 45-H ) :   0.9414 B( 39-C , 40-C ) :   1.4421
B( 39-C , 47-H ) :   0.9385 B( 40-C , 41-C ) :   1.4417 B( 40-C , 43-H ) :   0.9440
B( 41-C , 42-C ) :   1.4738 B( 41-C , 44-H ) :   0.9385 B( 42-C , 46-H ) :   0.9417

FINAL SINGLE POINT ENERGY      -890.742911971978

DIPOLE MOMENT
-------------
                                X             Y             Z
Electronic contribution:     13.62705      -0.23127       0.00088
Nuclear contribution   :    -10.82369       0.14307      -0.00029
                        -----------------------------------------
Total Dipole Moment    :      2.80336      -0.08819       0.00059
                        -----------------------------------------
Magnitude (a.u.)       :      2.80475
Magnitude (Debye)      :      7.12910

Rotational constants in cm-1:     0.006740     0.004685     0.002775
Rotational constants in MHz :   202.049713   140.466397    83.204171

CHEMICAL SHIELDING SUMMARY (ppm)  --  Orbital contribution
----------------------------------------------------------

  Nucleus  Element    Isotropic     Anisotropy
  -------  -------  ------------   ------------
      8       H           99.938         11.506
      9       H           10.451          4.692
     11       H           12.257         36.883
     12       H           12.141         36.849
     14       H          102.191         13.492
     15       H          102.104         13.553
     17       H           -4.759         28.679
     18       H           -4.664         28.691
     20       H           44.356         12.093
     21       H           44.492         12.036
     23       H          100.213         29.315
     24       H          100.269         29.293
     26       H           49.281         28.593
     27       H           49.225         28.588
     29       H           58.521         18.158
     30       H           58.582         18.128
     32       H            1.368         22.824
     33       H            1.402         22.831
     35       H          -85.110        -86.114
     36       H          -50.389         25.658
     43       H         -118.999       -168.075
     44       H          -53.000          2.342
     45       H           89.574         18.771
     46       H           85.482         20.805
     47       H          -48.654          4.026

                             ****ORCA TERMINATED NORMALLY****
TOTAL RUN TIME: 0 days 1 hours 14 minutes 53 seconds 55 msec
