                         Program Version 5.0.4 -  RELEASE  -
|  1> ! B3LYP cc-pVDZ AUTOAUX
|  2> %pal nprocs 16 end
|  3> *XYZFile 0 2 opt_cc-pVDZ.xyz
|  4> %EPRNMR
|  5>         GTENSOR   TRUE
|  6>         NUCLEI    = ALL H {SHIFT, AISO, ADIP, AORB}
|  7>         ORI       CenterOfElCharge
|  8> END
|  9>
| 10>                          ****END OF INPUT****

CARTESIAN COORDINATES (ANGSTROEM)
---------------------------------
  C     -2.775454    0.046275   -0.011726
  C      2.820068    0.009333   -0.009158
  C     -1.416146   -0.010335   -0.011342
  C     -0.684837   -1.267641   -0.014396
  C      0.690339   -1.196565   -0.013408
  C      1.406827    0.035857   -0.009714
  C      0.687718    1.279494   -0.006700
  C     -0.690447    1.243934   -0.007612
  H      1.276950   -2.115896   -0.015553
  H     -1.268546    2.167020   -0.005471
  C     -1.481022   -2.556034   -0.018581
  H     -2.154921   -2.540923   -0.897144
  H     -2.157653   -2.544895    0.857940
  C     -0.681530   -3.861383   -0.020319
  H     -0.018124   -3.891105   -0.904067
  H     -0.020937   -3.895116    0.865395
  C     -1.579795   -5.104335   -0.024627
  H     -2.246941   -5.074228    0.856665
  H     -2.243926   -5.070281   -0.908053
  C     -0.790484   -6.415794   -0.026231
  H     -0.143479   -6.495089    0.864444
  H     -0.139948   -6.490764   -0.914705
  C      1.466081    2.581276   -0.002730
  H      2.141262    2.571205    0.872678
  H      2.142868    2.575547   -0.876932
  C      0.653453    3.878247   -0.000274
  H     -0.008242    3.909004   -0.885502
  H     -0.010013    3.904631    0.883765
  C      1.541182    5.128985    0.003735
  H      2.206071    5.100030    0.886928
  H      2.208047    5.104274   -0.878097
  C      0.742021    6.434527    0.005993
  H      0.091320    6.504280    0.894721
  H      0.093798    6.508891   -0.884172
  C      4.045944   -0.034404   -0.010004
  H     -1.461297   -7.290069   -0.029689
  H      1.405900    7.314173    0.009201
  C      5.469023   -0.089649   -0.009731
  C      6.140681   -1.333721   -0.012315
  C      7.533655   -1.383691   -0.012033
  C      8.284442   -0.202048   -0.009208
  C      7.630240    1.035744   -0.006660
  C      6.237715    1.096870   -0.006921
  H      9.376025   -0.245728   -0.009002
  H      8.211088    1.961246   -0.004455
  H      5.553377   -2.253884   -0.014518
  H      5.725928    2.061099   -0.004950
  H      8.038991   -2.352498   -0.014040

 Total Charge           Charge          ....    0
 Multiplicity           Mult            ....    2
 Number of Electrons    NEL             ....  163
 Basis Dimension        Dim             ....  447

ORBITAL ENERGIES
----------------
                 SPIN UP ORBITALS
  NO   OCC          E(Eh)            E(eV)
   0   1.0000     -10.241643      -278.6893
   1   1.0000     -10.232518      -278.4410
   2   1.0000     -10.216989      -278.0184
   3   1.0000     -10.214855      -277.9603
   4   1.0000     -10.213495      -277.9233
   5   1.0000     -10.213367      -277.9199
   6   1.0000     -10.211686      -277.8741
   7   1.0000     -10.210717      -277.8477
   8   1.0000     -10.209659      -277.8189
   9   1.0000     -10.209557      -277.8162
  10   1.0000     -10.208526      -277.7881
  11   1.0000     -10.206748      -277.7397
  12   1.0000     -10.202587      -277.6265
  13   1.0000     -10.194336      -277.4020
  14   1.0000     -10.187771      -277.2233
  15   1.0000     -10.187146      -277.2063
  16   1.0000     -10.186345      -277.1845
  17   1.0000     -10.182991      -277.0933
  18   1.0000     -10.181811      -277.0612
  19   1.0000     -10.178412      -276.9687
  20   1.0000     -10.176755      -276.9236
  21   1.0000     -10.176107      -276.9060
  22   1.0000     -10.164372      -276.5866
  23   1.0000      -0.882019       -24.0009
  24   1.0000      -0.878140       -23.8954
  25   1.0000      -0.823586       -22.4109
  26   1.0000      -0.808488       -22.0001
  27   1.0000      -0.796981       -21.6870
  28   1.0000      -0.786637       -21.4055
  29   1.0000      -0.772699       -21.0262
  30   1.0000      -0.765923       -20.8418
  31   1.0000      -0.741919       -20.1886
  32   1.0000      -0.733237       -19.9524
  33   1.0000      -0.705051       -19.1854
  34   1.0000      -0.674921       -18.3655
  35   1.0000      -0.656548       -17.8656
  36   1.0000      -0.634910       -17.2768
  37   1.0000      -0.625094       -17.0097
  38   1.0000      -0.623688       -16.9714
  39   1.0000      -0.597693       -16.2641
  40   1.0000      -0.582418       -15.8484
  41   1.0000      -0.566983       -15.4284
  42   1.0000      -0.556290       -15.1374
  43   1.0000      -0.534411       -14.5421
  44   1.0000      -0.518901       -14.1200
  45   1.0000      -0.494713       -13.4618
  46   1.0000      -0.483456       -13.1555
  47   1.0000      -0.476203       -12.9581
  48   1.0000      -0.472814       -12.8659
  49   1.0000      -0.471294       -12.8246
  50   1.0000      -0.450464       -12.2577
  51   1.0000      -0.440297       -11.9811
  52   1.0000      -0.438612       -11.9352
  53   1.0000      -0.429285       -11.6814
  54   1.0000      -0.428447       -11.6586
  55   1.0000      -0.426116       -11.5952
  56   1.0000      -0.418999       -11.4016
  57   1.0000      -0.414184       -11.2705
  58   1.0000      -0.410180       -11.1616
  59   1.0000      -0.398426       -10.8417
  60   1.0000      -0.382503       -10.4084
  61   1.0000      -0.376548       -10.2464
  62   1.0000      -0.375215       -10.2101
  63   1.0000      -0.369094       -10.0436
  64   1.0000      -0.366407        -9.9704
  65   1.0000      -0.364046        -9.9062
  66   1.0000      -0.360269        -9.8034
  67   1.0000      -0.348433        -9.4813
  68   1.0000      -0.336994        -9.1701
  69   1.0000      -0.332670        -9.0524
  70   1.0000      -0.330696        -8.9987
  71   1.0000      -0.329086        -8.9549
  72   1.0000      -0.327212        -8.9039
  73   1.0000      -0.324052        -8.8179
  74   1.0000      -0.322609        -8.7786
  75   1.0000      -0.288915        -7.8618
  76   1.0000      -0.286447        -7.7946
  77   1.0000      -0.273314        -7.4372
  78   1.0000      -0.257345        -7.0027
  79   1.0000      -0.242243        -6.5918
  80   1.0000      -0.234062        -6.3692
  81   1.0000      -0.157514        -4.2862
  82   0.0000      -0.110361        -3.0031
  83   0.0000      -0.041071        -1.1176
  84   0.0000      -0.024583        -0.6689
  85   0.0000      -0.007809        -0.2125
  86   0.0000       0.026570         0.7230

                 SPIN DOWN ORBITALS
  NO   OCC          E(Eh)            E(eV)
   0   1.0000     -10.241921      -278.6969
   1   1.0000     -10.232474      -278.4398
   2   1.0000     -10.215876      -277.9881
   3   1.0000     -10.215044      -277.9655
   4   1.0000     -10.213547      -277.9248
   5   1.0000     -10.213420      -277.9213
   6   1.0000     -10.211741      -277.8756
   7   1.0000     -10.210427      -277.8399
   8   1.0000     -10.209634      -277.8183
   9   1.0000     -10.209533      -277.8155
  10   1.0000     -10.208430      -277.7855
  11   1.0000     -10.205380      -277.7025
  12   1.0000     -10.202473      -277.6234
  13   1.0000     -10.194281      -277.4005
  14   1.0000     -10.187637      -277.2197
  15   1.0000     -10.187146      -277.2063
  16   1.0000     -10.186345      -277.1845
  17   1.0000     -10.182967      -277.0926
  18   1.0000     -10.181806      -277.0610
  19   1.0000     -10.178411      -276.9687
  20   1.0000     -10.177638      -276.9476
  21   1.0000     -10.176108      -276.9060
  22   1.0000     -10.150555      -276.2107
  23   1.0000      -0.881187       -23.9783
  24   1.0000      -0.877680       -23.8829
  25   1.0000      -0.822028       -22.3685
  26   1.0000      -0.808051       -21.9882
  27   1.0000      -0.796687       -21.6789
  28   1.0000      -0.783806       -21.3284
  29   1.0000      -0.771943       -21.0056
  30   1.0000      -0.765970       -20.8431
  31   1.0000      -0.738562       -20.0973
  32   1.0000      -0.733014       -19.9463
  33   1.0000      -0.704196       -19.1621
  34   1.0000      -0.667431       -18.1617
  35   1.0000      -0.655758       -17.8441
  36   1.0000      -0.632690       -17.2164
  37   1.0000      -0.624844       -17.0029
  38   1.0000      -0.623718       -16.9722
  39   1.0000      -0.595934       -16.2162
  40   1.0000      -0.581806       -15.8317
  41   1.0000      -0.566301       -15.4098
  42   1.0000      -0.554586       -15.0911
  43   1.0000      -0.524072       -14.2607
  44   1.0000      -0.516840       -14.0639
  45   1.0000      -0.494519       -13.4566
  46   1.0000      -0.479337       -13.0434
  47   1.0000      -0.476182       -12.9576
  48   1.0000      -0.472511       -12.8577
  49   1.0000      -0.471236       -12.8230
  50   1.0000      -0.450444       -12.2572
  51   1.0000      -0.438858       -11.9419
  52   1.0000      -0.438585       -11.9345
  53   1.0000      -0.428437       -11.6584
  54   1.0000      -0.428044       -11.6477
  55   1.0000      -0.425795       -11.5865
  56   1.0000      -0.418895       -11.3987
  57   1.0000      -0.413700       -11.2573
  58   1.0000      -0.406927       -11.0730
  59   1.0000      -0.398680       -10.8486
  60   1.0000      -0.382582       -10.4106
  61   1.0000      -0.376066       -10.2333
  62   1.0000      -0.373594       -10.1660
  63   1.0000      -0.368388       -10.0243
  64   1.0000      -0.365579        -9.9479
  65   1.0000      -0.362758        -9.8711
  66   1.0000      -0.360110        -9.7991
  67   1.0000      -0.348626        -9.4866
  68   1.0000      -0.336901        -9.1675
  69   1.0000      -0.332288        -9.0420
  70   1.0000      -0.330337        -8.9889
  71   1.0000      -0.328954        -8.9513
  72   1.0000      -0.327231        -8.9044
  73   1.0000      -0.322596        -8.7783
  74   1.0000      -0.322545        -8.7769
  75   1.0000      -0.287987        -7.8365
  76   1.0000      -0.286379        -7.7928
  77   1.0000      -0.273446        -7.4408
  78   1.0000      -0.256696        -6.9850
  79   1.0000      -0.232758        -6.3337
  80   1.0000      -0.219078        -5.9614
  81   0.0000      -0.104304        -2.8383
  82   0.0000      -0.038517        -1.0481
  83   0.0000      -0.024714        -0.6725
  84   0.0000      -0.007184        -0.1955
  85   0.0000      -0.003963        -0.1078

MULLIKEN ATOMIC CHARGES AND SPIN POPULATIONS
--------------------------------------------
   0 C :   -0.252095    0.991257
   1 C :    0.283318    0.007740
   2 C :    0.002908   -0.058460
   3 C :   -0.042919    0.022998
   4 C :    0.006830    0.005197
   5 C :   -0.165329   -0.019705
   6 C :   -0.071470    0.009724
   7 C :    0.053062    0.032566
   8 H :   -0.052502    0.003919
   9 H :   -0.040449    0.004805
  10 C :    0.049415    0.010821
  11 H :    0.043167    0.000821
  12 H :    0.043190    0.000855
  13 C :   -0.040456    0.001041
  14 H :    0.012425    0.000468
  15 H :    0.012382    0.000464
  16 C :   -0.024984    0.000042
  17 H :    0.009206    0.000066
  18 H :    0.009189    0.000065
  19 C :    0.001869   -0.000022
  20 H :    0.015908   -0.000001
  21 H :    0.015882   -0.000001
  22 C :    0.036799    0.002140
  23 H :    0.030110    0.000332
  24 H :    0.030104    0.000335
  25 C :   -0.035907   -0.000065
  26 H :    0.020589   -0.000018
  27 H :    0.020616   -0.000018
  28 C :   -0.027068   -0.000059
  29 H :    0.005058    0.000004
  30 H :    0.005053    0.000004
  31 C :    0.003202    0.000024
  32 H :    0.019774   -0.000000
  33 H :    0.019784   -0.000000
  34 C :    0.174868   -0.013106
  35 H :    0.014235   -0.000014
  36 H :    0.013158   -0.000003
  37 C :   -0.263432    0.002796
  38 C :    0.035595   -0.003546
  39 C :    0.041656    0.001874
  40 C :    0.038458   -0.004026
  41 C :    0.041420    0.001874
  42 C :    0.032981   -0.003551
  43 H :   -0.019314    0.000180
  44 H :   -0.020422   -0.000070
  45 H :   -0.033112    0.000149
  46 H :   -0.032405    0.000174
  47 H :   -0.020343   -0.000070
Sum of atomic charges         :   -0.0000000

LOEWDIN ATOMIC CHARGES AND SPIN POPULATIONS
-------------------------------------------
   0 C :   -0.122647    0.885797
   1 C :   -0.014592    0.003656
   2 C :   -0.165689    0.042933
   3 C :    0.034544    0.027032
   4 C :   -0.015251    0.004762
   5 C :   -0.005288   -0.014050
   6 C :   -0.019412    0.008739
   7 C :    0.043648    0.035328
   8 H :    0.028181    0.002742
   9 H :    0.031634    0.003180
  10 C :   -0.033928    0.006752
  11 H :    0.046182    0.001801
  12 H :    0.046184    0.001824
  13 C :   -0.046267    0.001289
  14 H :    0.022349    0.000346
  15 H :    0.022359    0.000343
  16 C :   -0.046165    0.000179
  17 H :    0.025652    0.000032
  18 H :    0.025645    0.000032
  19 C :   -0.067754   -0.000000
  20 H :    0.024602    0.000006
  21 H :    0.024595    0.000007
  22 C :   -0.036802    0.001852
  23 H :    0.037096    0.000303
  24 H :    0.037088    0.000305
  25 C :   -0.043041    0.000002
  26 H :    0.026387    0.000002
  27 H :    0.026385    0.000003
  28 C :   -0.047221    0.000019
  29 H :    0.023556    0.000010
  30 H :    0.023553    0.000010
  31 C :   -0.066933    0.000011
  32 H :    0.026397    0.000000
  33 H :    0.026398    0.000000
  34 C :    0.005918   -0.010094
  35 H :    0.028078   -0.000006
  36 H :    0.027804   -0.000001
  37 C :   -0.057131    0.001311
  38 C :    0.006918   -0.002789
  39 C :   -0.020422    0.001113
  40 C :   -0.010182   -0.003136
  41 C :   -0.020572    0.001114
  42 C :    0.005987   -0.002778
  43 H :    0.031682   -0.000008
  44 H :    0.032325    0.000006
  45 H :    0.032909    0.000002
  46 H :    0.032834    0.000014
  47 H :    0.032405    0.000006

  Mayer bond orders larger than 0.100000
B(  0-C ,  2-C ) :   1.5755 B(  1-C ,  5-C ) :   0.9025 B(  1-C , 34-C ) :   1.7161
B(  1-C , 37-C ) :  -0.1798 B(  2-C ,  3-C ) :   1.2639 B(  2-C ,  7-C ) :   1.2373
B(  3-C ,  4-C ) :   1.4604 B(  3-C , 10-C ) :   1.0831 B(  4-C ,  5-C ) :   1.3543
B(  4-C ,  8-H ) :   0.9256 B(  5-C ,  6-C ) :   1.3624 B(  5-C , 34-C ) :  -0.1036
B(  6-C ,  7-C ) :   1.4624 B(  6-C , 22-C ) :   1.0897 B(  7-C ,  9-H ) :   0.9196
B( 10-C , 11-H ) :   0.8988 B( 10-C , 12-H ) :   0.8988 B( 10-C , 13-C ) :   1.0955
B( 13-C , 14-H ) :   0.9294 B( 13-C , 15-H ) :   0.9294 B( 13-C , 16-C ) :   1.0765
B( 16-C , 17-H ) :   0.9414 B( 16-C , 18-H ) :   0.9414 B( 16-C , 19-C ) :   1.1054
B( 19-C , 20-H ) :   0.9663 B( 19-C , 21-H ) :   0.9663 B( 19-C , 35-H ) :   0.9621
B( 22-C , 23-H ) :   0.8990 B( 22-C , 24-H ) :   0.8990 B( 22-C , 25-C ) :   1.1040
B( 25-C , 26-H ) :   0.9296 B( 25-C , 27-H ) :   0.9296 B( 25-C , 28-C ) :   1.0745
B( 28-C , 29-H ) :   0.9412 B( 28-C , 30-H ) :   0.9412 B( 28-C , 31-C ) :   1.1065
B( 31-C , 32-H ) :   0.9662 B( 31-C , 33-H ) :   0.9662 B( 31-C , 36-H ) :   0.9614
B( 34-C , 37-C ) :   0.9412 B( 37-C , 38-C ) :   1.4335 B( 37-C , 42-C ) :   1.4310
B( 38-C , 39-C ) :   1.4737 B( 38-C , 45-H ) :   0.9414 B( 39-C , 40-C ) :   1.4421
B( 39-C , 47-H ) :   0.9385 B( 40-C , 41-C ) :   1.4417 B( 40-C , 43-H ) :   0.9440
B( 41-C , 42-C ) :   1.4738 B( 41-C , 44-H ) :   0.9385 B( 42-C , 46-H ) :   0.9417

FINAL SINGLE POINT ENERGY      -890.742915387886

DIPOLE MOMENT
-------------
                                X             Y             Z
Electronic contribution:     13.62446      -0.23047       0.00084
Nuclear contribution   :    -10.82152       0.14233      -0.00026
                        -----------------------------------------
Total Dipole Moment    :      2.80294      -0.08814       0.00057
                        -----------------------------------------
Magnitude (a.u.)       :      2.80433
Magnitude (Debye)      :      7.12804

Rotational constants in cm-1:     0.006741     0.004685     0.002775
Rotational constants in MHz :   202.092440   140.449518    83.205489

CHEMICAL SHIELDING SUMMARY (ppm)  --  Orbital contribution
----------------------------------------------------------

  Nucleus  Element    Isotropic     Anisotropy
  -------  -------  ------------   ------------
      8       H           99.922         11.502
      9       H           10.520          4.873
     11       H           12.280         36.930
     12       H           12.163         36.894
     14       H          102.181         13.492
     15       H          102.095         13.552
     17       H           -4.758         28.681
     18       H           -4.665         28.693
     20       H           44.352         12.093
     21       H           44.486         12.036
     23       H          100.217         29.324
     24       H          100.273         29.303
     26       H           49.281         28.604
     27       H           49.227         28.600
     29       H           58.528         18.160
     30       H           58.588         18.131
     32       H            1.371         22.827
     33       H            1.404         22.833
     35       H          -85.116        -86.105
     36       H          -50.378         25.658
     43       H         -118.997       -168.099
     44       H          -52.977          2.346
     45       H           89.546         18.766
     46       H           85.506         20.810
     47       H          -48.675          4.020

                             ****ORCA TERMINATED NORMALLY****
TOTAL RUN TIME: 0 days 1 hours 14 minutes 24 seconds 785 msec
