                         Program Version 5.0.4 -  RELEASE  -
|  1> ! B3LYP cc-pVDZ AUTOAUX
|  2> %pal nprocs 16 end
|  3> *XYZFile 0 4 opt.xyz
|  4> %EPRNMR
|  5>         GTENSOR   TRUE
|  6>         NUCLEI    = ALL H {SHIFT, AISO, ADIP, AORB}
|  7>         ORI       GIAO
|  8> END
|  9>
| 10>                          ****END OF INPUT****

CARTESIAN COORDINATES (ANGSTROEM)
---------------------------------
  C     -2.832372    0.020293   -0.012674
  C      2.815948   -0.003360   -0.008875
  C     -1.420433    0.002453   -0.011651
  C     -0.709375   -1.248719   -0.014317
  C      0.676247   -1.190347   -0.013098
  C      1.395990    0.032013   -0.009547
  C      0.690981    1.274503   -0.006793
  C     -0.695552    1.234643   -0.007923
  H      1.255523   -2.114320   -0.015016
  H     -1.274064    2.157630   -0.005970
  C     -1.489895   -2.544872   -0.018304
  H     -2.165019   -2.534890   -0.894888
  H     -2.166965   -2.539083    0.856814
  C     -0.678575   -3.843149   -0.020503
  H     -0.014665   -3.868142   -0.904151
  H     -0.016787   -3.872413    0.864608
  C     -1.565109   -5.094476   -0.024598
  H     -2.232311   -5.070651    0.856894
  H     -2.230018   -5.066520   -0.907703
  C     -0.764607   -6.399272   -0.026630
  H     -0.116223   -6.472896    0.863534
  H     -0.113640   -6.468533   -0.915256
  C      1.471273    2.575323   -0.002841
  H      2.146769    2.566888    0.872422
  H      2.148153    2.571347   -0.877069
  C      0.658643    3.872512   -0.000192
  H     -0.003508    3.902839   -0.885023
  H     -0.005190    3.898229    0.883519
  C      1.545480    5.123771    0.003914
  H      2.210563    5.095343    0.886947
  H      2.212467    5.099765   -0.877811
  C      0.745911    6.429167    0.006343
  H      0.095138    6.498653    0.895068
  H      0.097365    6.503336   -0.883633
  C      4.039703   -0.047094   -0.010051
  H     -1.427402   -7.279815   -0.029757
  H      1.409174    7.309394    0.009496
  C      5.464853   -0.099872   -0.009745
  C      6.139075   -1.341626   -0.011166
  C      7.532527   -1.388475   -0.010865
  C      8.280425   -0.205272   -0.009185
  C      7.623150    1.030678   -0.007808
  C      6.230136    1.087990   -0.008102
  H      9.372096   -0.246369   -0.008970
  H      8.201473    1.957801   -0.006530
  H      5.554032   -2.263250   -0.012463
  H      5.715792    2.050851   -0.007084
  H      8.040096   -2.356142   -0.011943

 Total Charge           Charge          ....    0
 Multiplicity           Mult            ....    4
 Number of Electrons    NEL             ....  163
 Basis Dimension        Dim             ....  447

ORBITAL ENERGIES
----------------
                 SPIN UP ORBITALS
  NO   OCC          E(Eh)            E(eV)
   0   1.0000     -10.240281      -278.6522
   1   1.0000     -10.221948      -278.1533
   2   1.0000     -10.215705      -277.9835
   3   1.0000     -10.212433      -277.8944
   4   1.0000     -10.203089      -277.6402
   5   1.0000     -10.199906      -277.5536
   6   1.0000     -10.197184      -277.4795
   7   1.0000     -10.197018      -277.4750
   8   1.0000     -10.196315      -277.4558
   9   1.0000     -10.195218      -277.4260
  10   1.0000     -10.195079      -277.4222
  11   1.0000     -10.193416      -277.3769
  12   1.0000     -10.190815      -277.3062
  13   1.0000     -10.190515      -277.2980
  14   1.0000     -10.188635      -277.2469
  15   1.0000     -10.187459      -277.2149
  16   1.0000     -10.186991      -277.2021
  17   1.0000     -10.182878      -277.0902
  18   1.0000     -10.182512      -277.0802
  19   1.0000     -10.182248      -277.0731
  20   1.0000     -10.181968      -277.0654
  21   1.0000     -10.176280      -276.9107
  22   1.0000     -10.175966      -276.9021
  23   1.0000      -0.875143       -23.8139
  24   1.0000      -0.863274       -23.4909
  25   1.0000      -0.819486       -22.2993
  26   1.0000      -0.797693       -21.7063
  27   1.0000      -0.795920       -21.6581
  28   1.0000      -0.777963       -21.1695
  29   1.0000      -0.766556       -20.8590
  30   1.0000      -0.750982       -20.4352
  31   1.0000      -0.736541       -20.0423
  32   1.0000      -0.724489       -19.7144
  33   1.0000      -0.701581       -19.0910
  34   1.0000      -0.674551       -18.3555
  35   1.0000      -0.653568       -17.7845
  36   1.0000      -0.626630       -17.0515
  37   1.0000      -0.615585       -16.7509
  38   1.0000      -0.608820       -16.5668
  39   1.0000      -0.596800       -16.2397
  40   1.0000      -0.579966       -15.7817
  41   1.0000      -0.565119       -15.3777
  42   1.0000      -0.554122       -15.0784
  43   1.0000      -0.534679       -14.5493
  44   1.0000      -0.507771       -13.8172
  45   1.0000      -0.480023       -13.0621
  46   1.0000      -0.478703       -13.0262
  47   1.0000      -0.471904       -12.8412
  48   1.0000      -0.470236       -12.7958
  49   1.0000      -0.457543       -12.4504
  50   1.0000      -0.437279       -11.8990
  51   1.0000      -0.436006       -11.8643
  52   1.0000      -0.426691       -11.6109
  53   1.0000      -0.424704       -11.5568
  54   1.0000      -0.424099       -11.5403
  55   1.0000      -0.423130       -11.5139
  56   1.0000      -0.417558       -11.3623
  57   1.0000      -0.412775       -11.2322
  58   1.0000      -0.410183       -11.1616
  59   1.0000      -0.385080       -10.4786
  60   1.0000      -0.381306       -10.3759
  61   1.0000      -0.377632       -10.2759
  62   1.0000      -0.370336       -10.0773
  63   1.0000      -0.366129        -9.9629
  64   1.0000      -0.360788        -9.8175
  65   1.0000      -0.358922        -9.7668
  66   1.0000      -0.350331        -9.5330
  67   1.0000      -0.345916        -9.4128
  68   1.0000      -0.343280        -9.3411
  69   1.0000      -0.333719        -9.0810
  70   1.0000      -0.330406        -8.9908
  71   1.0000      -0.327187        -8.9032
  72   1.0000      -0.326157        -8.8752
  73   1.0000      -0.322951        -8.7879
  74   1.0000      -0.321729        -8.7547
  75   1.0000      -0.321246        -8.7415
  76   1.0000      -0.291175        -7.9233
  77   1.0000      -0.267783        -7.2867
  78   1.0000      -0.259300        -7.0559
  79   1.0000      -0.249822        -6.7980
  80   1.0000      -0.237464        -6.4617
  81   1.0000      -0.224748        -6.1157
  82   1.0000      -0.180527        -4.9124
  83   0.0000      -0.041962        -1.1418
  84   0.0000      -0.010706        -0.2913
  85   0.0000      -0.002664        -0.0725
  86   0.0000       0.012403         0.3375
  87   0.0000       0.045733         1.2445

                 SPIN DOWN ORBITALS
  NO   OCC          E(Eh)            E(eV)
   0   1.0000     -10.221991      -278.1545
   1   1.0000     -10.216234      -277.9979
   2   1.0000     -10.208880      -277.7978
   3   1.0000     -10.201442      -277.5953
   4   1.0000     -10.201109      -277.5863
   5   1.0000     -10.198867      -277.5253
   6   1.0000     -10.196630      -277.4644
   7   1.0000     -10.196467      -277.4600
   8   1.0000     -10.195872      -277.4438
   9   1.0000     -10.195466      -277.4327
  10   1.0000     -10.195210      -277.4258
  11   1.0000     -10.192304      -277.3467
  12   1.0000     -10.189711      -277.2761
  13   1.0000     -10.189181      -277.2617
  14   1.0000     -10.188666      -277.2477
  15   1.0000     -10.187510      -277.2162
  16   1.0000     -10.186813      -277.1973
  17   1.0000     -10.182829      -277.0889
  18   1.0000     -10.182506      -277.0801
  19   1.0000     -10.182248      -277.0730
  20   1.0000     -10.181968      -277.0654
  21   1.0000     -10.176282      -276.9107
  22   1.0000     -10.175966      -276.9021
  23   1.0000      -0.868557       -23.6347
  24   1.0000      -0.862485       -23.4694
  25   1.0000      -0.815178       -22.1821
  26   1.0000      -0.795686       -21.6517
  27   1.0000      -0.790449       -21.5092
  28   1.0000      -0.773077       -21.0365
  29   1.0000      -0.762864       -20.7586
  30   1.0000      -0.750470       -20.4213
  31   1.0000      -0.732935       -19.9442
  32   1.0000      -0.719595       -19.5812
  33   1.0000      -0.698770       -19.0145
  34   1.0000      -0.652147       -17.7458
  35   1.0000      -0.649828       -17.6827
  36   1.0000      -0.622961       -16.9516
  37   1.0000      -0.613094       -16.6831
  38   1.0000      -0.608489       -16.5578
  39   1.0000      -0.590594       -16.0709
  40   1.0000      -0.579446       -15.7675
  41   1.0000      -0.561677       -15.2840
  42   1.0000      -0.539194       -14.6722
  43   1.0000      -0.515052       -14.0153
  44   1.0000      -0.505365       -13.7517
  45   1.0000      -0.478321       -13.0158
  46   1.0000      -0.472294       -12.8518
  47   1.0000      -0.471221       -12.8226
  48   1.0000      -0.470210       -12.7951
  49   1.0000      -0.457172       -12.4403
  50   1.0000      -0.435638       -11.8543
  51   1.0000      -0.429653       -11.6915
  52   1.0000      -0.423953       -11.5363
  53   1.0000      -0.423269       -11.5177
  54   1.0000      -0.422668       -11.5014
  55   1.0000      -0.422438       -11.4951
  56   1.0000      -0.416942       -11.3456
  57   1.0000      -0.410457       -11.1691
  58   1.0000      -0.399166       -10.8619
  59   1.0000      -0.381970       -10.3939
  60   1.0000      -0.373122       -10.1532
  61   1.0000      -0.368894       -10.0381
  62   1.0000      -0.365482        -9.9453
  63   1.0000      -0.361302        -9.8315
  64   1.0000      -0.357379        -9.7248
  65   1.0000      -0.357285        -9.7222
  66   1.0000      -0.350007        -9.5242
  67   1.0000      -0.340773        -9.2729
  68   1.0000      -0.333560        -9.0766
  69   1.0000      -0.329188        -8.9577
  70   1.0000      -0.326342        -8.8802
  71   1.0000      -0.325408        -8.8548
  72   1.0000      -0.322711        -8.7814
  73   1.0000      -0.320347        -8.7171
  74   1.0000      -0.315072        -8.5735
  75   1.0000      -0.275428        -7.4948
  76   1.0000      -0.267278        -7.2730
  77   1.0000      -0.257861        -7.0168
  78   1.0000      -0.242230        -6.5914
  79   1.0000      -0.220018        -5.9870
  80   0.0000      -0.158165        -4.3039
  81   0.0000      -0.085167        -2.3175
  82   0.0000      -0.031150        -0.8476
  83   0.0000      -0.025164        -0.6847
  84   0.0000      -0.009449        -0.2571

MULLIKEN ATOMIC CHARGES AND SPIN POPULATIONS
--------------------------------------------
   0 C :   -0.197489    2.536847
   1 C :    0.253934   -0.090443
   2 C :    0.118212   -0.156097
   3 C :   -0.048883    0.251537
   4 C :    0.006947   -0.117190
   5 C :   -0.173445    0.235492
   6 C :   -0.072276   -0.117187
   7 C :    0.033968    0.247573
   8 H :   -0.054384    0.009221
   9 H :   -0.049136   -0.002338
  10 C :    0.047459   -0.007751
  11 H :    0.029435    0.009266
  12 H :    0.029423    0.009263
  13 C :   -0.037043    0.002904
  14 H :    0.016919    0.000426
  15 H :    0.016888    0.000424
  16 C :   -0.025076   -0.000044
  17 H :    0.006460    0.000130
  18 H :    0.006458    0.000129
  19 C :    0.001837   -0.000122
  20 H :    0.017207    0.000013
  21 H :    0.017196    0.000013
  22 C :    0.038783    0.013293
  23 H :    0.031868   -0.003870
  24 H :    0.031876   -0.003869
  25 C :   -0.034029   -0.000649
  26 H :    0.016287    0.000070
  27 H :    0.016302    0.000070
  28 C :   -0.025801   -0.000078
  29 H :    0.005489    0.000037
  30 H :    0.005484    0.000037
  31 C :    0.003199    0.000049
  32 H :    0.017404   -0.000006
  33 H :    0.017413   -0.000006
  34 C :    0.147729    0.143687
  35 H :    0.013240   -0.000024
  36 H :    0.012695   -0.000006
  37 C :   -0.250122   -0.034185
  38 C :    0.030008    0.038271
  39 C :    0.040207   -0.020580
  40 C :    0.030998    0.041650
  41 C :    0.039958   -0.020553
  42 C :    0.027196    0.038236
  43 H :   -0.026881   -0.001923
  44 H :   -0.026998    0.000843
  45 H :   -0.040351   -0.001711
  46 H :   -0.039595   -0.001697
  47 H :   -0.026971    0.000845
Sum of atomic charges         :   -0.0000000

LOEWDIN ATOMIC CHARGES AND SPIN POPULATIONS
-------------------------------------------
   0 C :    0.028268    2.380362
   1 C :   -0.018833   -0.042302
   2 C :   -0.090413    0.042435
   3 C :   -0.009227    0.192363
   4 C :   -0.007766   -0.065222
   5 C :   -0.051873    0.170398
   6 C :   -0.009391   -0.064808
   7 C :   -0.010469    0.197332
   8 H :    0.029829    0.003223
   9 H :    0.027565    0.004358
  10 C :   -0.035359    0.008538
  11 H :    0.037350    0.008509
  12 H :    0.037343    0.008511
  13 C :   -0.043119    0.002189
  14 H :    0.024662    0.000301
  15 H :    0.024663    0.000299
  16 C :   -0.047095    0.000154
  17 H :    0.024206    0.000108
  18 H :    0.024205    0.000108
  19 C :   -0.067600   -0.000058
  20 H :    0.025216    0.000014
  21 H :    0.025215    0.000014
  22 C :   -0.033824    0.002493
  23 H :    0.038570   -0.002951
  24 H :    0.038568   -0.002950
  25 C :   -0.043508    0.000125
  26 H :    0.024407    0.000113
  27 H :    0.024405    0.000113
  28 C :   -0.047259    0.000030
  29 H :    0.023852    0.000003
  30 H :    0.023848    0.000003
  31 C :   -0.067594    0.000021
  32 H :    0.025303   -0.000004
  33 H :    0.025303   -0.000004
  34 C :   -0.023173    0.105137
  35 H :    0.027690   -0.000016
  36 H :    0.027468   -0.000003
  37 C :   -0.053116   -0.015623
  38 C :   -0.001690    0.029460
  39 C :   -0.024054   -0.012191
  40 C :   -0.022772    0.032094
  41 C :   -0.024234   -0.012173
  42 C :   -0.002660    0.029428
  43 H :    0.028244    0.000111
  44 H :    0.029454   -0.000035
  45 H :    0.029985    0.000008
  46 H :    0.029902    0.000017
  47 H :    0.029510   -0.000034

  Mayer bond orders larger than 0.100000
B(  0-C ,  2-C ) :   1.2836 B(  1-C ,  5-C ) :   0.9211 B(  1-C , 34-C ) :   1.7425
B(  1-C , 37-C ) :  -0.1712 B(  2-C ,  3-C ) :   1.2595 B(  2-C ,  7-C ) :   1.2372
B(  3-C ,  4-C ) :   1.4818 B(  3-C , 10-C ) :   1.0769 B(  4-C ,  5-C ) :   1.3438
B(  4-C ,  8-H ) :   0.9227 B(  5-C ,  6-C ) :   1.3549 B(  6-C ,  7-C ) :   1.4905
B(  6-C , 22-C ) :   1.0906 B(  7-C ,  9-H ) :   0.9182 B( 10-C , 11-H ) :   0.9010
B( 10-C , 12-H ) :   0.9010 B( 10-C , 13-C ) :   1.1034 B( 13-C , 14-H ) :   0.9295
B( 13-C , 15-H ) :   0.9296 B( 13-C , 16-C ) :   1.0749 B( 16-C , 17-H ) :   0.9413
B( 16-C , 18-H ) :   0.9413 B( 16-C , 19-C ) :   1.1059 B( 19-C , 20-H ) :   0.9663
B( 19-C , 21-H ) :   0.9663 B( 19-C , 35-H ) :   0.9619 B( 22-C , 23-H ) :   0.8979
B( 22-C , 24-H ) :   0.8979 B( 22-C , 25-C ) :   1.1041 B( 25-C , 26-H ) :   0.9293
B( 25-C , 27-H ) :   0.9293 B( 25-C , 28-C ) :   1.0751 B( 28-C , 29-H ) :   0.9411
B( 28-C , 30-H ) :   0.9411 B( 28-C , 31-C ) :   1.1062 B( 31-C , 32-H ) :   0.9662
B( 31-C , 33-H ) :   0.9662 B( 31-C , 36-H ) :   0.9617 B( 34-C , 37-C ) :   0.9355
B( 37-C , 38-C ) :   1.4370 B( 37-C , 42-C ) :   1.4347 B( 38-C , 39-C ) :   1.4722
B( 38-C , 45-H ) :   0.9400 B( 39-C , 40-C ) :   1.4430 B( 39-C , 47-H ) :   0.9378
B( 40-C , 41-C ) :   1.4424 B( 40-C , 43-H ) :   0.9432 B( 41-C , 42-C ) :   1.4724
B( 41-C , 44-H ) :   0.9379 B( 42-C , 46-H ) :   0.9404

FINAL SINGLE POINT ENERGY      -890.697602632351

DIPOLE MOMENT
-------------
                                X             Y             Z
Electronic contribution:     11.08580      -0.25338      -0.00083
Nuclear contribution   :    -10.65062       0.21075       0.00090
                        -----------------------------------------
Total Dipole Moment    :      0.43519      -0.04263       0.00007
                        -----------------------------------------
Magnitude (a.u.)       :      0.43727
Magnitude (Debye)      :      1.11145

Rotational constants in cm-1:     0.006748     0.004694     0.002780
Rotational constants in MHz :   202.285640   140.716091    83.331498

CHEMICAL SHIELDING SUMMARY (ppm)  --  Orbital contribution
----------------------------------------------------------

  Nucleus  Element    Isotropic     Anisotropy
  -------  -------  ------------   ------------
      8       H           24.349         12.420
      9       H           24.696         10.604
     11       H           28.811          4.982
     12       H           28.811          4.984
     14       H           29.807          4.596
     15       H           29.808          4.591
     17       H           29.931          6.647
     18       H           29.931          6.647
     20       H           30.325          7.707
     21       H           30.325          7.706
     23       H           28.701          5.792
     24       H           28.699          5.799
     26       H           29.843          4.823
     27       H           29.843          4.825
     29       H           29.866          6.193
     30       H           29.866          6.195
     32       H           30.312          8.009
     33       H           30.312          8.009
     35       H           30.116         10.245
     36       H           30.097         10.202
     43       H           24.149          4.603
     44       H           24.163          5.497
     45       H           24.111          7.553
     46       H           24.085          7.656
     47       H           24.163          5.225

                             ****ORCA TERMINATED NORMALLY****
TOTAL RUN TIME: 0 days 1 hours 14 minutes 46 seconds 563 msec
