                         Program Version 5.0.4 -  RELEASE  -
|  1> ! B3LYP EPR-II AUTOAUX
|  2> %pal nprocs 16 end
|  3> *XYZFile 0 2 opt_EPRII.xyz
|  4> %EPRNMR
|  5>         GTENSOR   TRUE
|  6>         NUCLEI    = ALL H {SHIFT, AISO, ADIP, AORB}
|  7>         ORI       GIAO
|  8> END
|  9>
| 10>                          ****END OF INPUT****

CARTESIAN COORDINATES (ANGSTROEM)
---------------------------------
  C     -2.789251    0.057937   -0.011978
  C      2.818441    0.003573   -0.009293
  C     -1.424568   -0.004674   -0.011593
  C     -0.696249   -1.267874   -0.014585
  C      0.683232   -1.201355   -0.013534
  C      1.402084    0.033209   -0.009794
  C      0.686752    1.281751   -0.006764
  C     -0.695820    1.252926   -0.007819
  H      1.263197   -2.117815   -0.015643
  H     -1.265520    2.174377   -0.005747
  C     -1.496655   -2.559416   -0.018969
  H     -2.160989   -2.548652   -0.895397
  H     -2.164651   -2.552314    0.854714
  C     -0.685989   -3.865099   -0.020056
  H     -0.029348   -3.893761   -0.899547
  H     -0.033327   -3.897631    0.862264
  C     -1.584994   -5.114929   -0.024914
  H     -2.245027   -5.089694    0.852126
  H     -2.240762   -5.085892   -0.905031
  C     -0.783503   -6.428225   -0.025844
  H     -0.142715   -6.499503    0.860230
  H     -0.137886   -6.495264   -0.908737
  C      1.472248    2.584906   -0.002662
  H      2.138519    2.575598    0.870334
  H      2.140291    2.580023   -0.874333
  C      0.652914    3.884569   -0.000207
  H     -0.001101    3.916337   -0.881803
  H     -0.003334    3.911681    0.879880
  C      1.544979    5.139532    0.004282
  H      2.201657    5.113465    0.884006
  H      2.204178    5.117973   -0.873676
  C      0.737225    6.448979    0.006509
  H      0.091955    6.512343    0.889887
  H      0.095047    6.517287   -0.878754
  C      4.047570   -0.037828   -0.010119
  H     -1.446882   -7.299112   -0.029733
  H      1.395944    7.323513    0.010100
  C      5.474806   -0.092407   -0.009888
  C      6.146864   -1.341117   -0.011719
  C      7.544939   -1.391233   -0.011504
  C      8.299041   -0.204703   -0.009492
  C      7.641470    1.037985   -0.007687
  C      6.243742    1.098933   -0.007892
  H      9.384771   -0.247995   -0.009343
  H      8.219407    1.958416   -0.006137
  H      5.562231   -2.256245   -0.013273
  H      5.734127    2.057830   -0.006528
  H      8.048212   -2.354540   -0.012911

 Total Charge           Charge          ....    0
 Multiplicity           Mult            ....    2
 Number of Electrons    NEL             ....  163
 Basis Dimension        Dim             ....  566

ORBITAL ENERGIES
----------------
                 SPIN UP ORBITALS
  NO   OCC          E(Eh)            E(eV)
   0   1.0000     -10.253061      -279.0000
   1   1.0000     -10.245383      -278.7911
   2   1.0000     -10.228894      -278.3423
   3   1.0000     -10.228730      -278.3379
   4   1.0000     -10.222733      -278.1747
   5   1.0000     -10.222600      -278.1711
   6   1.0000     -10.222287      -278.1626
   7   1.0000     -10.221904      -278.1522
   8   1.0000     -10.221668      -278.1457
   9   1.0000     -10.219582      -278.0890
  10   1.0000     -10.219469      -278.0859
  11   1.0000     -10.215450      -277.9765
  12   1.0000     -10.210679      -277.8467
  13   1.0000     -10.195182      -277.4250
  14   1.0000     -10.191864      -277.3347
  15   1.0000     -10.188771      -277.2505
  16   1.0000     -10.187100      -277.2051
  17   1.0000     -10.186068      -277.1770
  18   1.0000     -10.183026      -277.0942
  19   1.0000     -10.181399      -277.0499
  20   1.0000     -10.179556      -276.9998
  21   1.0000     -10.173996      -276.8485
  22   1.0000     -10.171673      -276.7853
  23   1.0000      -0.880790       -23.9675
  24   1.0000      -0.876525       -23.8515
  25   1.0000      -0.822038       -22.3688
  26   1.0000      -0.807679       -21.9781
  27   1.0000      -0.794543       -21.6206
  28   1.0000      -0.786219       -21.3941
  29   1.0000      -0.770908       -20.9775
  30   1.0000      -0.766158       -20.8482
  31   1.0000      -0.742046       -20.1921
  32   1.0000      -0.732142       -19.9226
  33   1.0000      -0.704086       -19.1592
  34   1.0000      -0.675371       -18.3778
  35   1.0000      -0.656360       -17.8605
  36   1.0000      -0.635839       -17.3021
  37   1.0000      -0.625829       -17.0297
  38   1.0000      -0.625251       -17.0140
  39   1.0000      -0.598857       -16.2957
  40   1.0000      -0.583677       -15.8827
  41   1.0000      -0.568605       -15.4725
  42   1.0000      -0.557732       -15.1767
  43   1.0000      -0.535659       -14.5760
  44   1.0000      -0.519297       -14.1308
  45   1.0000      -0.498069       -13.5532
  46   1.0000      -0.482480       -13.1289
  47   1.0000      -0.477172       -12.9845
  48   1.0000      -0.472216       -12.8496
  49   1.0000      -0.471456       -12.8290
  50   1.0000      -0.452883       -12.3236
  51   1.0000      -0.442749       -12.0478
  52   1.0000      -0.441078       -12.0024
  53   1.0000      -0.429578       -11.6894
  54   1.0000      -0.427442       -11.6313
  55   1.0000      -0.425102       -11.5676
  56   1.0000      -0.420725       -11.4485
  57   1.0000      -0.414005       -11.2657
  58   1.0000      -0.410113       -11.1598
  59   1.0000      -0.397547       -10.8178
  60   1.0000      -0.382994       -10.4218
  61   1.0000      -0.378364       -10.2958
  62   1.0000      -0.375699       -10.2233
  63   1.0000      -0.368976       -10.0404
  64   1.0000      -0.367985       -10.0134
  65   1.0000      -0.365305        -9.9404
  66   1.0000      -0.362531        -9.8650
  67   1.0000      -0.350641        -9.5414
  68   1.0000      -0.335377        -9.1261
  69   1.0000      -0.331863        -9.0304
  70   1.0000      -0.331783        -9.0283
  71   1.0000      -0.329199        -8.9580
  72   1.0000      -0.328212        -8.9311
  73   1.0000      -0.324418        -8.8279
  74   1.0000      -0.322343        -8.7714
  75   1.0000      -0.289727        -7.8839
  76   1.0000      -0.287663        -7.8277
  77   1.0000      -0.273775        -7.4498
  78   1.0000      -0.258465        -7.0332
  79   1.0000      -0.249943        -6.8013
  80   1.0000      -0.235553        -6.4097
  81   1.0000      -0.163751        -4.4559
  82   0.0000      -0.113576        -3.0906
  83   0.0000      -0.045367        -1.2345
  84   0.0000      -0.030271        -0.8237
  85   0.0000      -0.012088        -0.3289
  86   0.0000       0.005440         0.1480

                 SPIN DOWN ORBITALS
  NO   OCC          E(Eh)            E(eV)
   0   1.0000     -10.253347      -279.0078
   1   1.0000     -10.245337      -278.7898
   2   1.0000     -10.229087      -278.3476
   3   1.0000     -10.227648      -278.3085
   4   1.0000     -10.222788      -278.1762
   5   1.0000     -10.222656      -278.1726
   6   1.0000     -10.222188      -278.1599
   7   1.0000     -10.221962      -278.1537
   8   1.0000     -10.221379      -278.1379
   9   1.0000     -10.219555      -278.0882
  10   1.0000     -10.219443      -278.0852
  11   1.0000     -10.214086      -277.9394
  12   1.0000     -10.210560      -277.8435
  13   1.0000     -10.195129      -277.4236
  14   1.0000     -10.192769      -277.3593
  15   1.0000     -10.188648      -277.2472
  16   1.0000     -10.187100      -277.2051
  17   1.0000     -10.186068      -277.1770
  18   1.0000     -10.183004      -277.0936
  19   1.0000     -10.181395      -277.0498
  20   1.0000     -10.173996      -276.8485
  21   1.0000     -10.171673      -276.7853
  22   1.0000     -10.165651      -276.6214
  23   1.0000      -0.879906       -23.9435
  24   1.0000      -0.876147       -23.8412
  25   1.0000      -0.820391       -22.3240
  26   1.0000      -0.807247       -21.9663
  27   1.0000      -0.794349       -21.6153
  28   1.0000      -0.783253       -21.3134
  29   1.0000      -0.770253       -20.9596
  30   1.0000      -0.766207       -20.8496
  31   1.0000      -0.738689       -20.1008
  32   1.0000      -0.731994       -19.9186
  33   1.0000      -0.703232       -19.1359
  34   1.0000      -0.667879       -18.1739
  35   1.0000      -0.655588       -17.8395
  36   1.0000      -0.633623       -17.2418
  37   1.0000      -0.625601       -17.0235
  38   1.0000      -0.625271       -17.0145
  39   1.0000      -0.597092       -16.2477
  40   1.0000      -0.583086       -15.8666
  41   1.0000      -0.567951       -15.4547
  42   1.0000      -0.556046       -15.1308
  43   1.0000      -0.525383       -14.2964
  44   1.0000      -0.517193       -14.0735
  45   1.0000      -0.497881       -13.5480
  46   1.0000      -0.478341       -13.0163
  47   1.0000      -0.477153       -12.9840
  48   1.0000      -0.472160       -12.8481
  49   1.0000      -0.471216       -12.8225
  50   1.0000      -0.452868       -12.3232
  51   1.0000      -0.441177       -12.0050
  52   1.0000      -0.440998       -12.0002
  53   1.0000      -0.429574       -11.6893
  54   1.0000      -0.426247       -11.5988
  55   1.0000      -0.424764       -11.5584
  56   1.0000      -0.420630       -11.4459
  57   1.0000      -0.413568       -11.2537
  58   1.0000      -0.406819       -11.0701
  59   1.0000      -0.397824       -10.8253
  60   1.0000      -0.383077       -10.4241
  61   1.0000      -0.378360       -10.2957
  62   1.0000      -0.373675       -10.1682
  63   1.0000      -0.368249       -10.0206
  64   1.0000      -0.367691       -10.0054
  65   1.0000      -0.363400        -9.8886
  66   1.0000      -0.362387        -9.8611
  67   1.0000      -0.350841        -9.5469
  68   1.0000      -0.335271        -9.1232
  69   1.0000      -0.331465        -9.0196
  70   1.0000      -0.331433        -9.0188
  71   1.0000      -0.329212        -8.9583
  72   1.0000      -0.328114        -8.9284
  73   1.0000      -0.324392        -8.8271
  74   1.0000      -0.321012        -8.7352
  75   1.0000      -0.288799        -7.8586
  76   1.0000      -0.287589        -7.8257
  77   1.0000      -0.273912        -7.4535
  78   1.0000      -0.257832        -7.0160
  79   1.0000      -0.234233        -6.3738
  80   1.0000      -0.226526        -6.1641
  81   0.0000      -0.107361        -2.9214
  82   0.0000      -0.042863        -1.1664
  83   0.0000      -0.030403        -0.8273
  84   0.0000      -0.013448        -0.3659
  85   0.0000      -0.011509        -0.3132

MULLIKEN ATOMIC CHARGES AND SPIN POPULATIONS
--------------------------------------------
   0 C :   -0.584000    0.979562
   1 C :   -0.360442    0.009869
   2 C :    0.347142   -0.078549
   3 C :    0.327412    0.003725
   4 C :   -0.420601    0.004035
   5 C :    0.553780   -0.018601
   6 C :    0.245761    0.003197
   7 C :   -0.350128    0.072641
   8 H :    0.134085    0.003605
   9 H :    0.153883   -0.000901
  10 C :   -0.361145    0.040158
  11 H :    0.165536   -0.002675
  12 H :    0.165620   -0.002687
  13 C :   -0.272359    0.001899
  14 H :    0.139776    0.000149
  15 H :    0.139959    0.000141
  16 C :   -0.261490    0.000077
  17 H :    0.147509   -0.000012
  18 H :    0.147487   -0.000013
  19 C :   -0.511778   -0.000318
  20 H :    0.159007   -0.000000
  21 H :    0.158970   -0.000000
  22 C :   -0.356600    0.004327
  23 H :    0.152565    0.000178
  24 H :    0.152432    0.000182
  25 C :   -0.267676   -0.001047
  26 H :    0.144625   -0.000012
  27 H :    0.144574   -0.000012
  28 C :   -0.265071    0.000008
  29 H :    0.143959    0.000004
  30 H :    0.143929    0.000004
  31 C :   -0.509384    0.000049
  32 H :    0.161617    0.000002
  33 H :    0.161631    0.000002
  34 C :   -0.281098   -0.014548
  35 H :    0.146658   -0.000012
  36 H :    0.144443   -0.000003
  37 C :    0.580105    0.002688
  38 C :   -0.270762   -0.003603
  39 C :   -0.096666    0.001957
  40 C :   -0.114781   -0.004240
  41 C :   -0.099381    0.001959
  42 C :   -0.265601   -0.003615
  43 H :    0.113354    0.000233
  44 H :    0.111830   -0.000095
  45 H :    0.124857    0.000194
  46 H :    0.124535    0.000194
  47 H :    0.111924   -0.000094
Sum of atomic charges         :   -0.0000000

LOEWDIN ATOMIC CHARGES AND SPIN POPULATIONS
-------------------------------------------
   0 C :   -0.114687    0.882506
   1 C :   -0.026353    0.003860
   2 C :   -0.212437    0.042659
   3 C :   -0.001784    0.027647
   4 C :   -0.015755    0.004748
   5 C :   -0.020751   -0.014477
   6 C :   -0.053176    0.008524
   7 C :    0.038034    0.039865
   8 H :    0.060518    0.001933
   9 H :    0.067440    0.001134
  10 C :   -0.046775    0.011415
  11 H :    0.067077    0.000715
  12 H :    0.067134    0.000711
  13 C :   -0.082605    0.001558
  14 H :    0.043010    0.000195
  15 H :    0.043059    0.000191
  16 C :   -0.087938    0.000192
  17 H :    0.042168    0.000000
  18 H :    0.042160    0.000000
  19 C :   -0.078984    0.000020
  20 H :    0.033542    0.000001
  21 H :    0.033537    0.000001
  22 C :   -0.045779    0.001805
  23 H :    0.057774    0.000175
  24 H :    0.057766    0.000177
  25 C :   -0.077894    0.000154
  26 H :    0.046015   -0.000010
  27 H :    0.045999   -0.000010
  28 C :   -0.090470    0.000058
  29 H :    0.040562    0.000006
  30 H :    0.040558    0.000006
  31 C :   -0.077048    0.000013
  32 H :    0.034934    0.000002
  33 H :    0.034931    0.000002
  34 C :   -0.005869   -0.010379
  35 H :    0.032113   -0.000005
  36 H :    0.031819   -0.000001
  37 C :   -0.075479    0.001389
  38 C :   -0.005937   -0.002951
  39 C :   -0.037996    0.001212
  40 C :   -0.029798   -0.003318
  41 C :   -0.038322    0.001213
  42 C :   -0.006335   -0.002929
  43 H :    0.051535   -0.000018
  44 H :    0.052381    0.000008
  45 H :    0.057947   -0.000006
  46 H :    0.057684   -0.000003
  47 H :    0.052476    0.000008

  Mayer bond orders larger than 0.100000
B(  0-C ,  2-C ) :   0.9325 B(  0-C ,  7-C ) :   0.1929 B(  1-C ,  5-C ) :   0.8476
B(  1-C ,  6-C ) :   0.1090 B(  1-C , 34-C ) :   2.4691 B(  2-C ,  3-C ) :   1.2956
B(  2-C ,  4-C ) :   0.1189 B(  2-C ,  7-C ) :   1.3238 B(  3-C ,  4-C ) :   1.4754
B(  3-C ,  5-C ) :   0.1131 B(  3-C , 10-C ) :   0.9589 B(  4-C ,  5-C ) :   1.4016
B(  4-C ,  8-H ) :   0.9703 B(  5-C ,  6-C ) :   1.3508 B(  5-C ,  7-C ) :   0.1365
B(  5-C , 34-C ) :   0.1205 B(  6-C ,  7-C ) :   1.4902 B(  6-C , 22-C ) :   0.9669
B(  7-C ,  9-H ) :   0.9604 B( 10-C , 11-H ) :   0.9546 B( 10-C , 12-H ) :   0.9546
B( 10-C , 13-C ) :   1.0105 B( 13-C , 14-H ) :   0.9631 B( 13-C , 15-H ) :   0.9633
B( 13-C , 16-C ) :   0.9877 B( 16-C , 17-H ) :   0.9709 B( 16-C , 18-H ) :   0.9710
B( 16-C , 19-C ) :   0.9541 B( 19-C , 20-H ) :   0.9729 B( 19-C , 21-H ) :   0.9729
B( 19-C , 35-H ) :   0.9678 B( 22-C , 23-H ) :   0.9560 B( 22-C , 24-H ) :   0.9560
B( 22-C , 25-C ) :   1.0225 B( 25-C , 26-H ) :   0.9607 B( 25-C , 27-H ) :   0.9607
B( 25-C , 28-C ) :   0.9871 B( 28-C , 29-H ) :   0.9719 B( 28-C , 30-H ) :   0.9719
B( 28-C , 31-C ) :   0.9566 B( 31-C , 32-H ) :   0.9723 B( 31-C , 33-H ) :   0.9723
B( 31-C , 36-H ) :   0.9671 B( 34-C , 37-C ) :   1.0156 B( 37-C , 38-C ) :   1.3822
B( 37-C , 42-C ) :   1.3790 B( 38-C , 39-C ) :   1.4819 B( 38-C , 45-H ) :   0.9789
B( 39-C , 40-C ) :   1.4513 B( 39-C , 47-H ) :   0.9727 B( 40-C , 41-C ) :   1.4540
B( 40-C , 43-H ) :   0.9625 B( 41-C , 42-C ) :   1.4815 B( 41-C , 44-H ) :   0.9736
B( 42-C , 46-H ) :   0.9768

FINAL SINGLE POINT ENERGY      -890.820928554642

DIPOLE MOMENT
-------------
                                X             Y             Z
Electronic contribution:     13.78167      -0.24828      -0.00193
Nuclear contribution   :    -10.80287       0.14144       0.00254
                        -----------------------------------------
Total Dipole Moment    :      2.97880      -0.10684       0.00061
                        -----------------------------------------
Magnitude (a.u.)       :      2.98072
Magnitude (Debye)      :      7.57639

Rotational constants in cm-1:     0.006709     0.004670     0.002765
Rotational constants in MHz :   201.131378   140.008553    82.884845

CHEMICAL SHIELDING SUMMARY (ppm)  --  Orbital contribution
----------------------------------------------------------

  Nucleus  Element    Isotropic     Anisotropy
  -------  -------  ------------   ------------
      8       H           25.169         17.458
      9       H            4.579        -19.270
     11       H           19.559         16.498
     12       H           19.501         16.510
     14       H           31.608          8.371
     15       H           31.608          8.369
     17       H           29.512          5.537
     18       H           29.516          5.554
     20       H           30.978          8.834
     21       H           30.980          8.833
     23       H           30.134          7.497
     24       H           30.132          7.519
     26       H           30.142          7.797
     27       H           30.140          7.822
     29       H           30.451          7.136
     30       H           30.451          7.143
     32       H           30.611          7.542
     33       H           30.611          7.543
     35       H           30.496         10.256
     36       H           30.591         10.717
     43       H           24.248          4.663
     44       H           24.317          5.853
     45       H           24.264          8.414
     46       H           24.313          8.943
     47       H           24.348          5.672

                             ****ORCA TERMINATED NORMALLY****
TOTAL RUN TIME: 0 days 1 hours 24 minutes 49 seconds 121 msec
