                         Program Version 5.0.4 -  RELEASE  -
|  1> ! B3LYP EPR-II AUTOAUX
|  2> %pal nprocs 16 end
|  3> *XYZFile 0 4 opt.xyz
|  4> %EPRNMR
|  5>         GTENSOR   TRUE
|  6>         NUCLEI    = ALL H {SHIFT, AISO, ADIP, AORB}
|  7>         ORI       GIAO
|  8> END
|  9>
| 10>                          ****END OF INPUT****

CARTESIAN COORDINATES (ANGSTROEM)
---------------------------------
  C     -2.832372    0.020293   -0.012674
  C      2.815948   -0.003360   -0.008875
  C     -1.420433    0.002453   -0.011651
  C     -0.709375   -1.248719   -0.014317
  C      0.676247   -1.190347   -0.013098
  C      1.395990    0.032013   -0.009547
  C      0.690981    1.274503   -0.006793
  C     -0.695552    1.234643   -0.007923
  H      1.255523   -2.114320   -0.015016
  H     -1.274064    2.157630   -0.005970
  C     -1.489895   -2.544872   -0.018304
  H     -2.165019   -2.534890   -0.894888
  H     -2.166965   -2.539083    0.856814
  C     -0.678575   -3.843149   -0.020503
  H     -0.014665   -3.868142   -0.904151
  H     -0.016787   -3.872413    0.864608
  C     -1.565109   -5.094476   -0.024598
  H     -2.232311   -5.070651    0.856894
  H     -2.230018   -5.066520   -0.907703
  C     -0.764607   -6.399272   -0.026630
  H     -0.116223   -6.472896    0.863534
  H     -0.113640   -6.468533   -0.915256
  C      1.471273    2.575323   -0.002841
  H      2.146769    2.566888    0.872422
  H      2.148153    2.571347   -0.877069
  C      0.658643    3.872512   -0.000192
  H     -0.003508    3.902839   -0.885023
  H     -0.005190    3.898229    0.883519
  C      1.545480    5.123771    0.003914
  H      2.210563    5.095343    0.886947
  H      2.212467    5.099765   -0.877811
  C      0.745911    6.429167    0.006343
  H      0.095138    6.498653    0.895068
  H      0.097365    6.503336   -0.883633
  C      4.039703   -0.047094   -0.010051
  H     -1.427402   -7.279815   -0.029757
  H      1.409174    7.309394    0.009496
  C      5.464853   -0.099872   -0.009745
  C      6.139075   -1.341626   -0.011166
  C      7.532527   -1.388475   -0.010865
  C      8.280425   -0.205272   -0.009185
  C      7.623150    1.030678   -0.007808
  C      6.230136    1.087990   -0.008102
  H      9.372096   -0.246369   -0.008970
  H      8.201473    1.957801   -0.006530
  H      5.554032   -2.263250   -0.012463
  H      5.715792    2.050851   -0.007084
  H      8.040096   -2.356142   -0.011943

 Total Charge           Charge          ....    0
 Multiplicity           Mult            ....    4
 Number of Electrons    NEL             ....  163
 Basis Dimension        Dim             ....  566

ORBITAL ENERGIES
----------------
                 SPIN UP ORBITALS
  NO   OCC          E(Eh)            E(eV)
   0   1.0000     -10.246929      -278.8331
   1   1.0000     -10.232539      -278.4415
   2   1.0000     -10.226960      -278.2897
   3   1.0000     -10.221841      -278.1504
   4   1.0000     -10.212523      -277.8969
   5   1.0000     -10.209105      -277.8039
   6   1.0000     -10.205252      -277.6990
   7   1.0000     -10.205118      -277.6954
   8   1.0000     -10.204901      -277.6895
   9   1.0000     -10.203831      -277.6603
  10   1.0000     -10.203672      -277.6560
  11   1.0000     -10.202629      -277.6276
  12   1.0000     -10.200332      -277.5652
  13   1.0000     -10.199640      -277.5463
  14   1.0000     -10.197865      -277.4980
  15   1.0000     -10.189828      -277.2793
  16   1.0000     -10.188029      -277.2304
  17   1.0000     -10.183650      -277.1112
  18   1.0000     -10.183135      -277.0972
  19   1.0000     -10.182915      -277.0912
  20   1.0000     -10.182576      -277.0820
  21   1.0000     -10.173835      -276.8441
  22   1.0000     -10.173522      -276.8356
  23   1.0000      -0.874733       -23.8027
  24   1.0000      -0.863312       -23.4919
  25   1.0000      -0.818428       -22.2706
  26   1.0000      -0.797247       -21.6942
  27   1.0000      -0.793845       -21.6016
  28   1.0000      -0.778046       -21.1717
  29   1.0000      -0.765256       -20.8237
  30   1.0000      -0.751331       -20.4448
  31   1.0000      -0.735599       -20.0167
  32   1.0000      -0.724307       -19.7094
  33   1.0000      -0.700161       -19.0523
  34   1.0000      -0.674628       -18.3576
  35   1.0000      -0.652363       -17.7517
  36   1.0000      -0.626190       -17.0395
  37   1.0000      -0.615610       -16.7516
  38   1.0000      -0.609508       -16.5856
  39   1.0000      -0.596306       -16.2263
  40   1.0000      -0.579038       -15.7564
  41   1.0000      -0.564597       -15.3635
  42   1.0000      -0.554329       -15.0841
  43   1.0000      -0.535599       -14.5744
  44   1.0000      -0.507756       -13.8168
  45   1.0000      -0.481004       -13.0888
  46   1.0000      -0.478042       -13.0082
  47   1.0000      -0.471600       -12.8329
  48   1.0000      -0.469891       -12.7864
  49   1.0000      -0.456993       -12.4354
  50   1.0000      -0.437922       -11.9165
  51   1.0000      -0.436992       -11.8911
  52   1.0000      -0.425544       -11.5797
  53   1.0000      -0.425310       -11.5733
  54   1.0000      -0.424572       -11.5532
  55   1.0000      -0.422134       -11.4868
  56   1.0000      -0.417510       -11.3610
  57   1.0000      -0.412170       -11.2157
  58   1.0000      -0.409968       -11.1558
  59   1.0000      -0.384919       -10.4742
  60   1.0000      -0.380743       -10.3605
  61   1.0000      -0.377477       -10.2717
  62   1.0000      -0.370026       -10.0689
  63   1.0000      -0.365241        -9.9387
  64   1.0000      -0.361974        -9.8498
  65   1.0000      -0.358862        -9.7651
  66   1.0000      -0.351676        -9.5696
  67   1.0000      -0.345859        -9.4113
  68   1.0000      -0.343330        -9.3425
  69   1.0000      -0.332487        -9.0474
  70   1.0000      -0.330546        -8.9946
  71   1.0000      -0.326430        -8.8826
  72   1.0000      -0.325222        -8.8497
  73   1.0000      -0.322324        -8.7709
  74   1.0000      -0.320889        -8.7318
  75   1.0000      -0.320769        -8.7286
  76   1.0000      -0.291638        -7.9359
  77   1.0000      -0.268594        -7.3088
  78   1.0000      -0.259800        -7.0695
  79   1.0000      -0.249988        -6.8025
  80   1.0000      -0.238271        -6.4837
  81   1.0000      -0.226238        -6.1562
  82   1.0000      -0.181666        -4.9434
  83   0.0000      -0.044120        -1.2006
  84   0.0000      -0.014729        -0.4008
  85   0.0000      -0.005097        -0.1387
  86   0.0000       0.009302         0.2531
  87   0.0000       0.014857         0.4043

                 SPIN DOWN ORBITALS
  NO   OCC          E(Eh)            E(eV)
   0   1.0000     -10.232645      -278.4444
   1   1.0000     -10.227471      -278.3036
   2   1.0000     -10.218329      -278.0549
   3   1.0000     -10.210623      -277.8452
   4   1.0000     -10.208345      -277.7832
   5   1.0000     -10.208060      -277.7754
   6   1.0000     -10.204807      -277.6869
   7   1.0000     -10.204675      -277.6833
   8   1.0000     -10.204403      -277.6759
   9   1.0000     -10.204012      -277.6653
  10   1.0000     -10.203738      -277.6578
  11   1.0000     -10.201959      -277.6094
  12   1.0000     -10.199568      -277.5443
  13   1.0000     -10.199334      -277.5380
  14   1.0000     -10.196140      -277.4511
  15   1.0000     -10.189853      -277.2800
  16   1.0000     -10.187855      -277.2256
  17   1.0000     -10.183600      -277.1099
  18   1.0000     -10.183130      -277.0971
  19   1.0000     -10.182914      -277.0912
  20   1.0000     -10.182575      -277.0819
  21   1.0000     -10.173837      -276.8442
  22   1.0000     -10.173521      -276.8356
  23   1.0000      -0.868104       -23.6223
  24   1.0000      -0.862501       -23.4698
  25   1.0000      -0.813753       -22.1433
  26   1.0000      -0.793994       -21.6057
  27   1.0000      -0.790008       -21.4972
  28   1.0000      -0.772709       -21.0265
  29   1.0000      -0.761964       -20.7341
  30   1.0000      -0.750828       -20.4311
  31   1.0000      -0.731444       -19.9036
  32   1.0000      -0.720001       -19.5922
  33   1.0000      -0.697343       -18.9757
  34   1.0000      -0.651032       -17.7155
  35   1.0000      -0.650024       -17.6880
  36   1.0000      -0.622145       -16.9294
  37   1.0000      -0.613388       -16.6911
  38   1.0000      -0.609184       -16.5767
  39   1.0000      -0.590086       -16.0570
  40   1.0000      -0.578504       -15.7419
  41   1.0000      -0.561288       -15.2734
  42   1.0000      -0.540366       -14.7041
  43   1.0000      -0.515107       -14.0168
  44   1.0000      -0.505414       -13.7530
  45   1.0000      -0.479426       -13.0459
  46   1.0000      -0.471451       -12.8288
  47   1.0000      -0.470892       -12.8136
  48   1.0000      -0.469875       -12.7859
  49   1.0000      -0.456625       -12.4254
  50   1.0000      -0.436769       -11.8851
  51   1.0000      -0.429963       -11.6999
  52   1.0000      -0.425170       -11.5695
  53   1.0000      -0.422295       -11.4912
  54   1.0000      -0.422055       -11.4847
  55   1.0000      -0.421570       -11.4715
  56   1.0000      -0.416903       -11.3445
  57   1.0000      -0.409916       -11.1544
  58   1.0000      -0.398538       -10.8448
  59   1.0000      -0.381758       -10.3882
  60   1.0000      -0.372915       -10.1475
  61   1.0000      -0.368423       -10.0253
  62   1.0000      -0.364595        -9.9211
  63   1.0000      -0.362089        -9.8530
  64   1.0000      -0.357311        -9.7229
  65   1.0000      -0.357208        -9.7201
  66   1.0000      -0.351339        -9.5604
  67   1.0000      -0.340789        -9.2733
  68   1.0000      -0.332345        -9.0436
  69   1.0000      -0.328570        -8.9409
  70   1.0000      -0.325153        -8.8479
  71   1.0000      -0.324898        -8.8409
  72   1.0000      -0.322080        -8.7642
  73   1.0000      -0.319308        -8.6888
  74   1.0000      -0.315257        -8.5786
  75   1.0000      -0.275848        -7.5062
  76   1.0000      -0.268082        -7.2949
  77   1.0000      -0.258384        -7.0310
  78   1.0000      -0.242389        -6.5957
  79   1.0000      -0.220765        -6.0073
  80   0.0000      -0.162965        -4.4345
  81   0.0000      -0.086793        -2.3618
  82   0.0000      -0.036465        -0.9922
  83   0.0000      -0.027848        -0.7578
  84   0.0000      -0.013540        -0.3684

MULLIKEN ATOMIC CHARGES AND SPIN POPULATIONS
--------------------------------------------
   0 C :   -0.439057    2.511032
   1 C :   -0.364804   -0.080814
   2 C :    0.416665   -0.144271
   3 C :    0.319013    0.241092
   4 C :   -0.427974   -0.106704
   5 C :    0.516901    0.215349
   6 C :    0.257060   -0.102778
   7 C :   -0.377163    0.263354
   8 H :    0.132484    0.011933
   9 H :    0.131295   -0.009370
  10 C :   -0.360861    0.002836
  11 H :    0.149880    0.007821
  12 H :    0.149849    0.007819
  13 C :   -0.264373    0.003054
  14 H :    0.139961    0.000157
  15 H :    0.139995    0.000155
  16 C :   -0.255242    0.000229
  17 H :    0.142219    0.000010
  18 H :    0.142224    0.000010
  19 C :   -0.508776   -0.000370
  20 H :    0.157823    0.000018
  21 H :    0.157809    0.000018
  22 C :   -0.349968    0.013359
  23 H :    0.150772   -0.004089
  24 H :    0.150639   -0.004090
  25 C :   -0.265704   -0.001296
  26 H :    0.139144   -0.000044
  27 H :    0.139128   -0.000044
  28 C :   -0.255494    0.000054
  29 H :    0.141658    0.000049
  30 H :    0.141636    0.000049
  31 C :   -0.508587    0.000012
  32 H :    0.158059   -0.000007
  33 H :    0.158069   -0.000007
  34 C :   -0.311732    0.133087
  35 H :    0.143692   -0.000022
  36 H :    0.142751   -0.000007
  37 C :    0.596382   -0.027747
  38 C :   -0.281880    0.036036
  39 C :   -0.097385   -0.019132
  40 C :   -0.122211    0.040588
  41 C :   -0.100561   -0.019110
  42 C :   -0.275788    0.036093
  43 H :    0.105833   -0.002324
  44 H :    0.104931    0.000965
  45 H :    0.118559   -0.001958
  46 H :    0.118196   -0.001960
  47 H :    0.104934    0.000964
Sum of atomic charges         :   -0.0000000

LOEWDIN ATOMIC CHARGES AND SPIN POPULATIONS
-------------------------------------------
   0 C :    0.024907    2.355410
   1 C :   -0.030735   -0.040397
   2 C :   -0.114958    0.067438
   3 C :   -0.048937    0.191880
   4 C :   -0.011241   -0.064531
   5 C :   -0.067265    0.169222
   6 C :   -0.046030   -0.063923
   7 C :   -0.017403    0.199041
   8 H :    0.063692    0.002667
   9 H :    0.061898    0.001632
  10 C :   -0.052645    0.011090
  11 H :    0.061598    0.007927
  12 H :    0.061597    0.007930
  13 C :   -0.083961    0.002505
  14 H :    0.047244    0.000226
  15 H :    0.047256    0.000224
  16 C :   -0.095742    0.000251
  17 H :    0.043658    0.000052
  18 H :    0.043658    0.000052
  19 C :   -0.084794   -0.000025
  20 H :    0.036373    0.000011
  21 H :    0.036372    0.000011
  22 C :   -0.047160    0.002635
  23 H :    0.061386   -0.003151
  24 H :    0.061386   -0.003151
  25 C :   -0.084573    0.000139
  26 H :    0.047075    0.000110
  27 H :    0.047067    0.000110
  28 C :   -0.096359    0.000076
  29 H :    0.043377    0.000005
  30 H :    0.043374    0.000005
  31 C :   -0.084941    0.000019
  32 H :    0.036493   -0.000005
  33 H :    0.036493   -0.000005
  34 C :   -0.033870    0.103403
  35 H :    0.033984   -0.000013
  36 H :    0.033855   -0.000003
  37 C :   -0.073905   -0.014977
  38 C :   -0.017385    0.028869
  39 C :   -0.045353   -0.011691
  40 C :   -0.045540    0.031591
  41 C :   -0.045696   -0.011678
  42 C :   -0.017662    0.028844
  43 H :    0.051523    0.000178
  44 H :    0.052741   -0.000060
  45 H :    0.058303    0.000057
  46 H :    0.058037    0.000059
  47 H :    0.052808   -0.000059

  Mayer bond orders larger than 0.100000
B(  0-C ,  2-C ) :   0.9248 B(  0-C ,  7-C ) :   0.1289 B(  1-C ,  5-C ) :   0.8273
B(  1-C ,  6-C ) :   0.1145 B(  1-C , 34-C ) :   2.4781 B(  2-C ,  3-C ) :   1.3027
B(  2-C ,  4-C ) :   0.1085 B(  2-C ,  6-C ) :   0.1082 B(  2-C ,  7-C ) :   1.3062
B(  3-C ,  4-C ) :   1.4855 B(  3-C ,  5-C ) :   0.1114 B(  3-C , 10-C ) :   0.9328
B(  4-C ,  5-C ) :   1.4013 B(  4-C ,  8-H ) :   0.9713 B(  5-C ,  6-C ) :   1.3356
B(  5-C ,  7-C ) :   0.1395 B(  5-C , 34-C ) :   0.1158 B(  6-C ,  7-C ) :   1.4996
B(  6-C , 22-C ) :   0.9664 B(  7-C ,  9-H ) :   0.9737 B( 10-C , 11-H ) :   0.9601
B( 10-C , 12-H ) :   0.9601 B( 10-C , 13-C ) :   1.0243 B( 13-C , 14-H ) :   0.9615
B( 13-C , 15-H ) :   0.9616 B( 13-C , 16-C ) :   0.9865 B( 16-C , 17-H ) :   0.9711
B( 16-C , 18-H ) :   0.9711 B( 16-C , 19-C ) :   0.9547 B( 19-C , 20-H ) :   0.9726
B( 19-C , 21-H ) :   0.9726 B( 19-C , 35-H ) :   0.9677 B( 22-C , 23-H ) :   0.9549
B( 22-C , 24-H ) :   0.9550 B( 22-C , 25-C ) :   1.0238 B( 25-C , 26-H ) :   0.9608
B( 25-C , 27-H ) :   0.9609 B( 25-C , 28-C ) :   0.9887 B( 28-C , 29-H ) :   0.9713
B( 28-C , 30-H ) :   0.9713 B( 28-C , 31-C ) :   0.9541 B( 31-C , 32-H ) :   0.9730
B( 31-C , 33-H ) :   0.9730 B( 31-C , 36-H ) :   0.9673 B( 34-C , 37-C ) :   1.0149
B( 37-C , 38-C ) :   1.3848 B( 37-C , 39-C ) :   0.1000 B( 37-C , 42-C ) :   1.3805
B( 38-C , 39-C ) :   1.4784 B( 38-C , 40-C ) :   0.1009 B( 38-C , 45-H ) :   0.9827
B( 39-C , 40-C ) :   1.4507 B( 39-C , 47-H ) :   0.9764 B( 40-C , 41-C ) :   1.4533
B( 40-C , 42-C ) :   0.1022 B( 40-C , 43-H ) :   0.9659 B( 41-C , 42-C ) :   1.4783
B( 41-C , 44-H ) :   0.9773 B( 42-C , 46-H ) :   0.9804

FINAL SINGLE POINT ENERGY      -890.771596608381

DIPOLE MOMENT
-------------
                                X             Y             Z
Electronic contribution:     11.14763      -0.25712      -0.00082
Nuclear contribution   :    -10.65062       0.21075       0.00090
                        -----------------------------------------
Total Dipole Moment    :      0.49701      -0.04637       0.00008
                        -----------------------------------------
Magnitude (a.u.)       :      0.49917
Magnitude (Debye)      :      1.26879

Rotational constants in cm-1:     0.006748     0.004694     0.002780
Rotational constants in MHz :   202.285640   140.716091    83.331498

CHEMICAL SHIELDING SUMMARY (ppm)  --  Orbital contribution
----------------------------------------------------------

  Nucleus  Element    Isotropic     Anisotropy
  -------  -------  ------------   ------------
      8       H           24.338         13.007
      9       H           24.691         11.120
     11       H           28.916          5.140
     12       H           28.916          5.142
     14       H           29.998          4.748
     15       H           29.998          4.743
     17       H           30.143          6.684
     18       H           30.143          6.684
     20       H           30.706          7.873
     21       H           30.707          7.872
     23       H           28.791          6.068
     24       H           28.790          6.076
     26       H           30.025          4.900
     27       H           30.025          4.903
     29       H           30.086          6.256
     30       H           30.086          6.258
     32       H           30.702          8.154
     33       H           30.702          8.154
     35       H           30.481         10.319
     36       H           30.466         10.279
     43       H           24.330          4.555
     44       H           24.309          5.481
     45       H           24.084          7.841
     46       H           24.050          7.996
     47       H           24.297          5.202

                             ****ORCA TERMINATED NORMALLY****
TOTAL RUN TIME: 0 days 1 hours 25 minutes 22 seconds 269 msec
