                         Program Version 5.0.4 -  RELEASE  -
|  1> ! B3LYP EPR-II AUTOAUX
|  2> %pal nprocs 16 end
|  3> *XYZFile 0 2 opt.xyz
|  4> %EPRNMR
|  5>         GTENSOR   TRUE
|  6>         NUCLEI    = ALL H {SHIFT, AISO, ADIP, AORB}
|  7>         ORI       CenterOfElCharge
|  8> END
|  9>
| 10>                          ****END OF INPUT****

CARTESIAN COORDINATES (ANGSTROEM)
---------------------------------
  C     -2.775358    0.046208   -0.011751
  C      2.820255    0.009685   -0.009139
  C     -1.416126   -0.010274   -0.011347
  C     -0.684648   -1.267420   -0.014386
  C      0.690490   -1.196208   -0.013389
  C      1.407047    0.036197   -0.009702
  C      0.687689    1.279681   -0.006696
  C     -0.690449    1.243926   -0.007610
  H      1.277162   -2.115524   -0.015523
  H     -1.268852    2.166837   -0.005472
  C     -1.480792   -2.555886   -0.018568
  H     -2.154671   -2.540740   -0.897146
  H     -2.157395   -2.544715    0.857974
  C     -0.681275   -3.861204   -0.020309
  H     -0.017862   -3.890851   -0.904058
  H     -0.020683   -3.894869    0.865412
  C     -1.579450   -5.104210   -0.024628
  H     -2.246605   -5.074150    0.856659
  H     -2.243576   -5.070198   -0.908059
  C     -0.790051   -6.415615   -0.026228
  H     -0.143052   -6.494872    0.864454
  H     -0.139497   -6.490536   -0.914694
  C      1.465882    2.581608   -0.002726
  H      2.141040    2.571608    0.872700
  H      2.142655    2.575943   -0.876938
  C      0.653075    3.878460   -0.000281
  H     -0.008622    3.909115   -0.885508
  H     -0.010403    3.904750    0.883750
  C      1.540606    5.129343    0.003729
  H      2.205493    5.100499    0.886927
  H      2.207479    5.104735   -0.878099
  C      0.741236    6.434757    0.005976
  H      0.090513    6.504407    0.894697
  H      0.093010    6.509016   -0.884195
  C      4.046121   -0.034213   -0.010003
  H     -1.460807   -7.289936   -0.029701
  H      1.404972    7.314510    0.009190
  C      5.469175   -0.089851   -0.009729
  C      6.140470   -1.334126   -0.012366
  C      7.533422   -1.384522   -0.012085
  C      8.284577   -0.203110   -0.009213
  C      7.630744    1.034879   -0.006618
  C      6.238242    1.096428   -0.006877
  H      9.376146   -0.247118   -0.009009
  H      8.211876    1.960203   -0.004379
  H      5.552872   -2.254102   -0.014605
  H      5.726741    2.060809   -0.004870
  H      8.038460   -2.353485   -0.014131

 Total Charge           Charge          ....    0
 Multiplicity           Mult            ....    2
 Number of Electrons    NEL             ....  163
 Basis Dimension        Dim             ....  566

ORBITAL ENERGIES
----------------
                 SPIN UP ORBITALS
  NO   OCC          E(Eh)            E(eV)
   0   1.0000     -10.252396      -278.9819
   1   1.0000     -10.244344      -278.7628
   2   1.0000     -10.228319      -278.3267
   3   1.0000     -10.227888      -278.3150
   4   1.0000     -10.222421      -278.1662
   5   1.0000     -10.222307      -278.1631
   6   1.0000     -10.221633      -278.1448
   7   1.0000     -10.221573      -278.1431
   8   1.0000     -10.220849      -278.1235
   9   1.0000     -10.219189      -278.0783
  10   1.0000     -10.219085      -278.0754
  11   1.0000     -10.215027      -277.9650
  12   1.0000     -10.210446      -277.8404
  13   1.0000     -10.196162      -277.4517
  14   1.0000     -10.190624      -277.3010
  15   1.0000     -10.189444      -277.2689
  16   1.0000     -10.188297      -277.2377
  17   1.0000     -10.187415      -277.2137
  18   1.0000     -10.184112      -277.1238
  19   1.0000     -10.182611      -277.0829
  20   1.0000     -10.178374      -276.9676
  21   1.0000     -10.176234      -276.9094
  22   1.0000     -10.173818      -276.8437
  23   1.0000      -0.882839       -24.0233
  24   1.0000      -0.879000       -23.9188
  25   1.0000      -0.823574       -22.4106
  26   1.0000      -0.809054       -22.0155
  27   1.0000      -0.795691       -21.6519
  28   1.0000      -0.787691       -21.4342
  29   1.0000      -0.771879       -21.0039
  30   1.0000      -0.767110       -20.8741
  31   1.0000      -0.743168       -20.2226
  32   1.0000      -0.732672       -19.9370
  33   1.0000      -0.704166       -19.1613
  34   1.0000      -0.676618       -18.4117
  35   1.0000      -0.655966       -17.8497
  36   1.0000      -0.636184       -17.3114
  37   1.0000      -0.625232       -17.0134
  38   1.0000      -0.624886       -17.0040
  39   1.0000      -0.597958       -16.2713
  40   1.0000      -0.581910       -15.8346
  41   1.0000      -0.567060       -15.4305
  42   1.0000      -0.558296       -15.1920
  43   1.0000      -0.536249       -14.5921
  44   1.0000      -0.519619       -14.1395
  45   1.0000      -0.496729       -13.5167
  46   1.0000      -0.483822       -13.1655
  47   1.0000      -0.476403       -12.9636
  48   1.0000      -0.473177       -12.8758
  49   1.0000      -0.471290       -12.8245
  50   1.0000      -0.452481       -12.3126
  51   1.0000      -0.441733       -12.0202
  52   1.0000      -0.440656       -11.9908
  53   1.0000      -0.428885       -11.6706
  54   1.0000      -0.428700       -11.6655
  55   1.0000      -0.425724       -11.5845
  56   1.0000      -0.419346       -11.4110
  57   1.0000      -0.413932       -11.2637
  58   1.0000      -0.410582       -11.1725
  59   1.0000      -0.399064       -10.8591
  60   1.0000      -0.383123       -10.4253
  61   1.0000      -0.378040       -10.2870
  62   1.0000      -0.376060       -10.2331
  63   1.0000      -0.368912       -10.0386
  64   1.0000      -0.367532       -10.0011
  65   1.0000      -0.365039        -9.9332
  66   1.0000      -0.360664        -9.8142
  67   1.0000      -0.349093        -9.4993
  68   1.0000      -0.336284        -9.1507
  69   1.0000      -0.332202        -9.0397
  70   1.0000      -0.331673        -9.0253
  71   1.0000      -0.328499        -8.9389
  72   1.0000      -0.327079        -8.9003
  73   1.0000      -0.323482        -8.8024
  74   1.0000      -0.322413        -8.7733
  75   1.0000      -0.290607        -7.9078
  76   1.0000      -0.288226        -7.8430
  77   1.0000      -0.274635        -7.4732
  78   1.0000      -0.258509        -7.0344
  79   1.0000      -0.249620        -6.7925
  80   1.0000      -0.236094        -6.4244
  81   1.0000      -0.163187        -4.4405
  82   0.0000      -0.113686        -3.0935
  83   0.0000      -0.044759        -1.2180
  84   0.0000      -0.029341        -0.7984
  85   0.0000      -0.011142        -0.3032
  86   0.0000       0.004975         0.1354

                 SPIN DOWN ORBITALS
  NO   OCC          E(Eh)            E(eV)
   0   1.0000     -10.252689      -278.9899
   1   1.0000     -10.244296      -278.7615
   2   1.0000     -10.228520      -278.3322
   3   1.0000     -10.226798      -278.2853
   4   1.0000     -10.222477      -278.1678
   5   1.0000     -10.222364      -278.1647
   6   1.0000     -10.221632      -278.1448
   7   1.0000     -10.221528      -278.1419
   8   1.0000     -10.220556      -278.1155
   9   1.0000     -10.219162      -278.0775
  10   1.0000     -10.219059      -278.0747
  11   1.0000     -10.213646      -277.9274
  12   1.0000     -10.210325      -277.8371
  13   1.0000     -10.196109      -277.4502
  14   1.0000     -10.191527      -277.3256
  15   1.0000     -10.189313      -277.2653
  16   1.0000     -10.188297      -277.2376
  17   1.0000     -10.187415      -277.2137
  18   1.0000     -10.184090      -277.1232
  19   1.0000     -10.182607      -277.0828
  20   1.0000     -10.176233      -276.9094
  21   1.0000     -10.173818      -276.8437
  22   1.0000     -10.164469      -276.5893
  23   1.0000      -0.882044       -24.0016
  24   1.0000      -0.878504       -23.9053
  25   1.0000      -0.821866       -22.3641
  26   1.0000      -0.808647       -22.0044
  27   1.0000      -0.795523       -21.6473
  28   1.0000      -0.784687       -21.3524
  29   1.0000      -0.771213       -20.9858
  30   1.0000      -0.767161       -20.8755
  31   1.0000      -0.739746       -20.1295
  32   1.0000      -0.732518       -19.9328
  33   1.0000      -0.703313       -19.1381
  34   1.0000      -0.669128       -18.2079
  35   1.0000      -0.655160       -17.8278
  36   1.0000      -0.634055       -17.2535
  37   1.0000      -0.625258       -17.0141
  38   1.0000      -0.624552       -16.9949
  39   1.0000      -0.596175       -16.2227
  40   1.0000      -0.581287       -15.8176
  41   1.0000      -0.566465       -15.4143
  42   1.0000      -0.556617       -15.1463
  43   1.0000      -0.525896       -14.3103
  44   1.0000      -0.517602       -14.0847
  45   1.0000      -0.496548       -13.5118
  46   1.0000      -0.479676       -13.0527
  47   1.0000      -0.476383       -12.9631
  48   1.0000      -0.472910       -12.8685
  49   1.0000      -0.471231       -12.8229
  50   1.0000      -0.452464       -12.3122
  51   1.0000      -0.440695       -11.9919
  52   1.0000      -0.440160       -11.9774
  53   1.0000      -0.428884       -11.6705
  54   1.0000      -0.427506       -11.6330
  55   1.0000      -0.425335       -11.5740
  56   1.0000      -0.419243       -11.4082
  57   1.0000      -0.413452       -11.2506
  58   1.0000      -0.407348       -11.0845
  59   1.0000      -0.399336       -10.8665
  60   1.0000      -0.383219       -10.4279
  61   1.0000      -0.377988       -10.2856
  62   1.0000      -0.374021       -10.1776
  63   1.0000      -0.368064       -10.0155
  64   1.0000      -0.367359        -9.9963
  65   1.0000      -0.363224        -9.8838
  66   1.0000      -0.360503        -9.8098
  67   1.0000      -0.349297        -9.5049
  68   1.0000      -0.336195        -9.1483
  69   1.0000      -0.331816        -9.0292
  70   1.0000      -0.331298        -9.0151
  71   1.0000      -0.328374        -8.9355
  72   1.0000      -0.327097        -8.9008
  73   1.0000      -0.322410        -8.7732
  74   1.0000      -0.322091        -8.7645
  75   1.0000      -0.289664        -7.8822
  76   1.0000      -0.288150        -7.8410
  77   1.0000      -0.274777        -7.4771
  78   1.0000      -0.257873        -7.0171
  79   1.0000      -0.234745        -6.3877
  80   1.0000      -0.226082        -6.1520
  81   0.0000      -0.107495        -2.9251
  82   0.0000      -0.042252        -1.1497
  83   0.0000      -0.029476        -0.8021
  84   0.0000      -0.013071        -0.3557
  85   0.0000      -0.010556        -0.2872

MULLIKEN ATOMIC CHARGES AND SPIN POPULATIONS
--------------------------------------------
   0 C :   -0.588913    0.978544
   1 C :   -0.362263    0.010426
   2 C :    0.352798   -0.078593
   3 C :    0.336055    0.003620
   4 C :   -0.427972    0.003956
   5 C :    0.559328   -0.019041
   6 C :    0.252557    0.003106
   7 C :   -0.354476    0.073576
   8 H :    0.132250    0.003781
   9 H :    0.152194   -0.000919
  10 C :   -0.359101    0.041025
  11 H :    0.163438   -0.002778
  12 H :    0.163486   -0.002784
  13 C :   -0.266687    0.001947
  14 H :    0.136692    0.000162
  15 H :    0.136802    0.000157
  16 C :   -0.252587    0.000075
  17 H :    0.144597   -0.000012
  18 H :    0.144582   -0.000013
  19 C :   -0.508924   -0.000327
  20 H :    0.156810   -0.000001
  21 H :    0.156780   -0.000001
  22 C :   -0.353609    0.004326
  23 H :    0.149851    0.000188
  24 H :    0.149724    0.000191
  25 C :   -0.262335   -0.001070
  26 H :    0.141788   -0.000013
  27 H :    0.141751   -0.000013
  28 C :   -0.256132    0.000006
  29 H :    0.140897    0.000004
  30 H :    0.140879    0.000004
  31 C :   -0.506696    0.000050
  32 H :    0.159498    0.000002
  33 H :    0.159510    0.000002
  34 C :   -0.281804   -0.015072
  35 H :    0.145014   -0.000012
  36 H :    0.142822   -0.000003
  37 C :    0.587285    0.002758
  38 C :   -0.271499   -0.003665
  39 C :   -0.095500    0.001973
  40 C :   -0.112945   -0.004312
  41 C :   -0.098049    0.001973
  42 C :   -0.266731   -0.003675
  43 H :    0.111715    0.000241
  44 H :    0.110357   -0.000094
  45 H :    0.123309    0.000198
  46 H :    0.123008    0.000199
  47 H :    0.110446   -0.000093
Sum of atomic charges         :   -0.0000000

LOEWDIN ATOMIC CHARGES AND SPIN POPULATIONS
-------------------------------------------
   0 C :   -0.115057    0.880486
   1 C :   -0.026042    0.004052
   2 C :   -0.214855    0.044098
   3 C :   -0.003286    0.027743
   4 C :   -0.017073    0.004865
   5 C :   -0.020813   -0.014724
   6 C :   -0.054974    0.008610
   7 C :    0.036837    0.040137
   8 H :    0.062922    0.002022
   9 H :    0.070065    0.001140
  10 C :   -0.051425    0.011718
  11 H :    0.070051    0.000721
  12 H :    0.070085    0.000722
  13 C :   -0.087547    0.001594
  14 H :    0.045411    0.000208
  15 H :    0.045444    0.000205
  16 C :   -0.093912    0.000202
  17 H :    0.044837    0.000000
  18 H :    0.044832    0.000000
  19 C :   -0.085180    0.000023
  20 H :    0.035897    0.000001
  21 H :    0.035894    0.000002
  22 C :   -0.049889    0.001768
  23 H :    0.060209    0.000181
  24 H :    0.060205    0.000182
  25 C :   -0.082796    0.000151
  26 H :    0.048515   -0.000011
  27 H :    0.048501   -0.000011
  28 C :   -0.096388    0.000059
  29 H :    0.043131    0.000006
  30 H :    0.043128    0.000006
  31 C :   -0.083271    0.000013
  32 H :    0.037338    0.000002
  33 H :    0.037336    0.000002
  34 C :   -0.004841   -0.010656
  35 H :    0.034370   -0.000005
  36 H :    0.034076   -0.000001
  37 C :   -0.077233    0.001414
  38 C :   -0.007470   -0.003002
  39 C :   -0.040575    0.001215
  40 C :   -0.032164   -0.003373
  41 C :   -0.040918    0.001216
  42 C :   -0.007810   -0.002980
  43 H :    0.054084   -0.000014
  44 H :    0.054911    0.000008
  45 H :    0.060335   -0.000003
  46 H :    0.060104   -0.000000
  47 H :    0.054998    0.000008

  Mayer bond orders larger than 0.100000
B(  0-C ,  2-C ) :   0.9344 B(  0-C ,  7-C ) :   0.1961 B(  1-C ,  5-C ) :   0.8476
B(  1-C ,  6-C ) :   0.1111 B(  1-C , 34-C ) :   2.4671 B(  2-C ,  3-C ) :   1.2980
B(  2-C ,  4-C ) :   0.1209 B(  2-C ,  7-C ) :   1.3256 B(  3-C ,  4-C ) :   1.4773
B(  3-C ,  5-C ) :   0.1182 B(  3-C , 10-C ) :   0.9605 B(  4-C ,  5-C ) :   1.4030
B(  4-C ,  8-H ) :   0.9717 B(  5-C ,  6-C ) :   1.3535 B(  5-C ,  7-C ) :   0.1412
B(  5-C , 34-C ) :   0.1269 B(  6-C ,  7-C ) :   1.4909 B(  6-C , 22-C ) :   0.9678
B(  7-C ,  9-H ) :   0.9610 B( 10-C , 11-H ) :   0.9543 B( 10-C , 12-H ) :   0.9543
B( 10-C , 13-C ) :   1.0113 B( 13-C , 14-H ) :   0.9624 B( 13-C , 15-H ) :   0.9625
B( 13-C , 16-C ) :   0.9896 B( 16-C , 17-H ) :   0.9703 B( 16-C , 18-H ) :   0.9704
B( 16-C , 19-C ) :   0.9537 B( 19-C , 20-H ) :   0.9729 B( 19-C , 21-H ) :   0.9729
B( 19-C , 35-H ) :   0.9677 B( 22-C , 23-H ) :   0.9558 B( 22-C , 24-H ) :   0.9558
B( 22-C , 25-C ) :   1.0240 B( 25-C , 26-H ) :   0.9599 B( 25-C , 27-H ) :   0.9599
B( 25-C , 28-C ) :   0.9889 B( 28-C , 29-H ) :   0.9713 B( 28-C , 30-H ) :   0.9713
B( 28-C , 31-C ) :   0.9563 B( 31-C , 32-H ) :   0.9723 B( 31-C , 33-H ) :   0.9723
B( 31-C , 36-H ) :   0.9669 B( 34-C , 37-C ) :   1.0172 B( 37-C , 38-C ) :   1.3825
B( 37-C , 42-C ) :   1.3799 B( 38-C , 39-C ) :   1.4817 B( 38-C , 40-C ) :   0.1008
B( 38-C , 45-H ) :   0.9797 B( 39-C , 40-C ) :   1.4513 B( 39-C , 47-H ) :   0.9732
B( 40-C , 41-C ) :   1.4538 B( 40-C , 42-C ) :   0.1022 B( 40-C , 43-H ) :   0.9629
B( 41-C , 42-C ) :   1.4815 B( 41-C , 44-H ) :   0.9740 B( 42-C , 46-H ) :   0.9775

FINAL SINGLE POINT ENERGY      -890.819295962823

DIPOLE MOMENT
-------------
                                X             Y             Z
Electronic contribution:     13.81535      -0.24261       0.00093
Nuclear contribution   :    -10.82369       0.14307      -0.00029
                        -----------------------------------------
Total Dipole Moment    :      2.99166      -0.09954       0.00064
                        -----------------------------------------
Magnitude (a.u.)       :      2.99332
Magnitude (Debye)      :      7.60841

Rotational constants in cm-1:     0.006740     0.004685     0.002775
Rotational constants in MHz :   202.049713   140.466397    83.204171

CHEMICAL SHIELDING SUMMARY (ppm)  --  Orbital contribution
----------------------------------------------------------

  Nucleus  Element    Isotropic     Anisotropy
  -------  -------  ------------   ------------
      8       H           96.969          9.615
      9       H            1.940        -16.399
     11       H            8.757         30.235
     12       H            8.631         30.202
     14       H          100.177         12.112
     15       H          100.088         12.169
     17       H           -5.367         27.638
     18       H           -5.272         27.648
     20       H           44.670         11.190
     21       H           44.804         11.133
     23       H           97.395         27.761
     24       H           97.450         27.739
     26       H           47.476         26.387
     27       H           47.421         26.386
     29       H           56.465         17.492
     30       H           56.525         17.462
     32       H            2.990         21.219
     33       H            3.024         21.224
     35       H          -81.333        -80.298
     36       H          -47.315         25.663
     43       H         -119.236       -171.598
     44       H          -53.307          0.239
     45       H           87.870         19.311
     46       H           83.711         21.436
     47       H          -48.962          2.032

                             ****ORCA TERMINATED NORMALLY****
TOTAL RUN TIME: 0 days 1 hours 24 minutes 7 seconds 535 msec
