                         Program Version 5.0.4 -  RELEASE  -
|  1> ! B3LYP EPR-II AUTOAUX
|  2> %pal nprocs 16 end
|  3> *XYZFile 0 2 opt_EPRII.xyz
|  4> %EPRNMR
|  5>         GTENSOR   TRUE
|  6>         NUCLEI    = ALL H {SHIFT, AISO, ADIP, AORB}
|  7>         ORI       CenterOfElCharge
|  8> END
|  9>
| 10>                          ****END OF INPUT****

CARTESIAN COORDINATES (ANGSTROEM)
---------------------------------
  C     -2.789251    0.057937   -0.011978
  C      2.818441    0.003573   -0.009293
  C     -1.424568   -0.004674   -0.011593
  C     -0.696249   -1.267874   -0.014585
  C      0.683232   -1.201355   -0.013534
  C      1.402084    0.033209   -0.009794
  C      0.686752    1.281751   -0.006764
  C     -0.695820    1.252926   -0.007819
  H      1.263197   -2.117815   -0.015643
  H     -1.265520    2.174377   -0.005747
  C     -1.496655   -2.559416   -0.018969
  H     -2.160989   -2.548652   -0.895397
  H     -2.164651   -2.552314    0.854714
  C     -0.685989   -3.865099   -0.020056
  H     -0.029348   -3.893761   -0.899547
  H     -0.033327   -3.897631    0.862264
  C     -1.584994   -5.114929   -0.024914
  H     -2.245027   -5.089694    0.852126
  H     -2.240762   -5.085892   -0.905031
  C     -0.783503   -6.428225   -0.025844
  H     -0.142715   -6.499503    0.860230
  H     -0.137886   -6.495264   -0.908737
  C      1.472248    2.584906   -0.002662
  H      2.138519    2.575598    0.870334
  H      2.140291    2.580023   -0.874333
  C      0.652914    3.884569   -0.000207
  H     -0.001101    3.916337   -0.881803
  H     -0.003334    3.911681    0.879880
  C      1.544979    5.139532    0.004282
  H      2.201657    5.113465    0.884006
  H      2.204178    5.117973   -0.873676
  C      0.737225    6.448979    0.006509
  H      0.091955    6.512343    0.889887
  H      0.095047    6.517287   -0.878754
  C      4.047570   -0.037828   -0.010119
  H     -1.446882   -7.299112   -0.029733
  H      1.395944    7.323513    0.010100
  C      5.474806   -0.092407   -0.009888
  C      6.146864   -1.341117   -0.011719
  C      7.544939   -1.391233   -0.011504
  C      8.299041   -0.204703   -0.009492
  C      7.641470    1.037985   -0.007687
  C      6.243742    1.098933   -0.007892
  H      9.384771   -0.247995   -0.009343
  H      8.219407    1.958416   -0.006137
  H      5.562231   -2.256245   -0.013273
  H      5.734127    2.057830   -0.006528
  H      8.048212   -2.354540   -0.012911

 Total Charge           Charge          ....    0
 Multiplicity           Mult            ....    2
 Number of Electrons    NEL             ....  163
 Basis Dimension        Dim             ....  566

ORBITAL ENERGIES
----------------
                 SPIN UP ORBITALS
  NO   OCC          E(Eh)            E(eV)
   0   1.0000     -10.253068      -279.0002
   1   1.0000     -10.245386      -278.7911
   2   1.0000     -10.228898      -278.3425
   3   1.0000     -10.228725      -278.3378
   4   1.0000     -10.222736      -278.1748
   5   1.0000     -10.222602      -278.1712
   6   1.0000     -10.222292      -278.1627
   7   1.0000     -10.221904      -278.1521
   8   1.0000     -10.221675      -278.1459
   9   1.0000     -10.219583      -278.0890
  10   1.0000     -10.219469      -278.0859
  11   1.0000     -10.215452      -277.9766
  12   1.0000     -10.210682      -277.8468
  13   1.0000     -10.195185      -277.4251
  14   1.0000     -10.191854      -277.3345
  15   1.0000     -10.188767      -277.2505
  16   1.0000     -10.187102      -277.2051
  17   1.0000     -10.186068      -277.1770
  18   1.0000     -10.183027      -277.0942
  19   1.0000     -10.181399      -277.0499
  20   1.0000     -10.179546      -276.9995
  21   1.0000     -10.173995      -276.8485
  22   1.0000     -10.171672      -276.7853
  23   1.0000      -0.880792       -23.9676
  24   1.0000      -0.876527       -23.8515
  25   1.0000      -0.822037       -22.3688
  26   1.0000      -0.807681       -21.9781
  27   1.0000      -0.794543       -21.6206
  28   1.0000      -0.786219       -21.3941
  29   1.0000      -0.770908       -20.9775
  30   1.0000      -0.766160       -20.8483
  31   1.0000      -0.742047       -20.1921
  32   1.0000      -0.732142       -19.9226
  33   1.0000      -0.704086       -19.1592
  34   1.0000      -0.675371       -18.3778
  35   1.0000      -0.656360       -17.8605
  36   1.0000      -0.635840       -17.3021
  37   1.0000      -0.625830       -17.0297
  38   1.0000      -0.625253       -17.0140
  39   1.0000      -0.598857       -16.2957
  40   1.0000      -0.583677       -15.8827
  41   1.0000      -0.568606       -15.4725
  42   1.0000      -0.557733       -15.1767
  43   1.0000      -0.535658       -14.5760
  44   1.0000      -0.519299       -14.1308
  45   1.0000      -0.498071       -13.5532
  46   1.0000      -0.482480       -13.1289
  47   1.0000      -0.477173       -12.9845
  48   1.0000      -0.472215       -12.8496
  49   1.0000      -0.471457       -12.8290
  50   1.0000      -0.452884       -12.3236
  51   1.0000      -0.442750       -12.0478
  52   1.0000      -0.441080       -12.0024
  53   1.0000      -0.429578       -11.6894
  54   1.0000      -0.427443       -11.6313
  55   1.0000      -0.425102       -11.5676
  56   1.0000      -0.420724       -11.4485
  57   1.0000      -0.414005       -11.2657
  58   1.0000      -0.410114       -11.1598
  59   1.0000      -0.397549       -10.8179
  60   1.0000      -0.382995       -10.4218
  61   1.0000      -0.378365       -10.2958
  62   1.0000      -0.375699       -10.2233
  63   1.0000      -0.368977       -10.0404
  64   1.0000      -0.367986       -10.0134
  65   1.0000      -0.365304        -9.9404
  66   1.0000      -0.362531        -9.8650
  67   1.0000      -0.350642        -9.5415
  68   1.0000      -0.335377        -9.1261
  69   1.0000      -0.331863        -9.0305
  70   1.0000      -0.331783        -9.0283
  71   1.0000      -0.329200        -8.9580
  72   1.0000      -0.328212        -8.9311
  73   1.0000      -0.324418        -8.8279
  74   1.0000      -0.322343        -8.7714
  75   1.0000      -0.289727        -7.8839
  76   1.0000      -0.287666        -7.8278
  77   1.0000      -0.273776        -7.4498
  78   1.0000      -0.258466        -7.0332
  79   1.0000      -0.249938        -6.8012
  80   1.0000      -0.235554        -6.4097
  81   1.0000      -0.163746        -4.4557
  82   0.0000      -0.113576        -3.0905
  83   0.0000      -0.045367        -1.2345
  84   0.0000      -0.030272        -0.8237
  85   0.0000      -0.012089        -0.3290
  86   0.0000       0.005438         0.1480

                 SPIN DOWN ORBITALS
  NO   OCC          E(Eh)            E(eV)
   0   1.0000     -10.253354      -279.0079
   1   1.0000     -10.245340      -278.7899
   2   1.0000     -10.229092      -278.3477
   3   1.0000     -10.227643      -278.3083
   4   1.0000     -10.222791      -278.1763
   5   1.0000     -10.222658      -278.1727
   6   1.0000     -10.222193      -278.1600
   7   1.0000     -10.221961      -278.1537
   8   1.0000     -10.221386      -278.1380
   9   1.0000     -10.219555      -278.0882
  10   1.0000     -10.219443      -278.0852
  11   1.0000     -10.214088      -277.9395
  12   1.0000     -10.210563      -277.8435
  13   1.0000     -10.195132      -277.4236
  14   1.0000     -10.192759      -277.3591
  15   1.0000     -10.188645      -277.2471
  16   1.0000     -10.187101      -277.2051
  17   1.0000     -10.186068      -277.1770
  18   1.0000     -10.183005      -277.0936
  19   1.0000     -10.181395      -277.0498
  20   1.0000     -10.173995      -276.8485
  21   1.0000     -10.171672      -276.7853
  22   1.0000     -10.165642      -276.6212
  23   1.0000      -0.879908       -23.9435
  24   1.0000      -0.876148       -23.8412
  25   1.0000      -0.820390       -22.3240
  26   1.0000      -0.807249       -21.9664
  27   1.0000      -0.794350       -21.6154
  28   1.0000      -0.783253       -21.3134
  29   1.0000      -0.770253       -20.9597
  30   1.0000      -0.766208       -20.8496
  31   1.0000      -0.738690       -20.1008
  32   1.0000      -0.731995       -19.9186
  33   1.0000      -0.703232       -19.1359
  34   1.0000      -0.667879       -18.1739
  35   1.0000      -0.655588       -17.8395
  36   1.0000      -0.633624       -17.2418
  37   1.0000      -0.625602       -17.0235
  38   1.0000      -0.625272       -17.0145
  39   1.0000      -0.597092       -16.2477
  40   1.0000      -0.583086       -15.8666
  41   1.0000      -0.567952       -15.4547
  42   1.0000      -0.556047       -15.1308
  43   1.0000      -0.525383       -14.2964
  44   1.0000      -0.517193       -14.0735
  45   1.0000      -0.497882       -13.5481
  46   1.0000      -0.478341       -13.0163
  47   1.0000      -0.477154       -12.9840
  48   1.0000      -0.472159       -12.8481
  49   1.0000      -0.471218       -12.8225
  50   1.0000      -0.452869       -12.3232
  51   1.0000      -0.441178       -12.0051
  52   1.0000      -0.440999       -12.0002
  53   1.0000      -0.429575       -11.6893
  54   1.0000      -0.426247       -11.5988
  55   1.0000      -0.424764       -11.5584
  56   1.0000      -0.420629       -11.4459
  57   1.0000      -0.413568       -11.2537
  58   1.0000      -0.406819       -11.0701
  59   1.0000      -0.397826       -10.8254
  60   1.0000      -0.383078       -10.4241
  61   1.0000      -0.378361       -10.2957
  62   1.0000      -0.373675       -10.1682
  63   1.0000      -0.368249       -10.0206
  64   1.0000      -0.367691       -10.0054
  65   1.0000      -0.363400        -9.8886
  66   1.0000      -0.362387        -9.8611
  67   1.0000      -0.350842        -9.5469
  68   1.0000      -0.335271        -9.1232
  69   1.0000      -0.331466        -9.0196
  70   1.0000      -0.331434        -9.0188
  71   1.0000      -0.329213        -8.9583
  72   1.0000      -0.328115        -8.9285
  73   1.0000      -0.324391        -8.8271
  74   1.0000      -0.321011        -8.7352
  75   1.0000      -0.288799        -7.8586
  76   1.0000      -0.287592        -7.8258
  77   1.0000      -0.273913        -7.4535
  78   1.0000      -0.257833        -7.0160
  79   1.0000      -0.234234        -6.3738
  80   1.0000      -0.226521        -6.1640
  81   0.0000      -0.107361        -2.9214
  82   0.0000      -0.042864        -1.1664
  83   0.0000      -0.030404        -0.8273
  84   0.0000      -0.013444        -0.3658
  85   0.0000      -0.011510        -0.3132

MULLIKEN ATOMIC CHARGES AND SPIN POPULATIONS
--------------------------------------------
   0 C :   -0.583992    0.979553
   1 C :   -0.360464    0.009847
   2 C :    0.347181   -0.078563
   3 C :    0.327415    0.003741
   4 C :   -0.420599    0.004019
   5 C :    0.553759   -0.018576
   6 C :    0.245748    0.003179
   7 C :   -0.350140    0.072653
   8 H :    0.134085    0.003606
   9 H :    0.153883   -0.000902
  10 C :   -0.361139    0.040155
  11 H :    0.165535   -0.002675
  12 H :    0.165620   -0.002687
  13 C :   -0.272360    0.001899
  14 H :    0.139776    0.000149
  15 H :    0.139959    0.000141
  16 C :   -0.261493    0.000077
  17 H :    0.147509   -0.000012
  18 H :    0.147487   -0.000013
  19 C :   -0.511776   -0.000318
  20 H :    0.159007   -0.000000
  21 H :    0.158969   -0.000000
  22 C :   -0.356601    0.004329
  23 H :    0.152565    0.000178
  24 H :    0.152432    0.000181
  25 C :   -0.267675   -0.001048
  26 H :    0.144626   -0.000012
  27 H :    0.144574   -0.000012
  28 C :   -0.265073    0.000008
  29 H :    0.143958    0.000004
  30 H :    0.143929    0.000004
  31 C :   -0.509381    0.000049
  32 H :    0.161617    0.000002
  33 H :    0.161630    0.000002
  34 C :   -0.281087   -0.014526
  35 H :    0.146658   -0.000012
  36 H :    0.144443   -0.000003
  37 C :    0.580096    0.002680
  38 C :   -0.270762   -0.003596
  39 C :   -0.096662    0.001952
  40 C :   -0.114775   -0.004232
  41 C :   -0.099380    0.001954
  42 C :   -0.265604   -0.003608
  43 H :    0.113355    0.000232
  44 H :    0.111831   -0.000094
  45 H :    0.124856    0.000193
  46 H :    0.124536    0.000194
  47 H :    0.111924   -0.000094
Sum of atomic charges         :   -0.0000000

LOEWDIN ATOMIC CHARGES AND SPIN POPULATIONS
-------------------------------------------
   0 C :   -0.114671    0.882495
   1 C :   -0.026358    0.003847
   2 C :   -0.212418    0.042652
   3 C :   -0.001774    0.027656
   4 C :   -0.015760    0.004738
   5 C :   -0.020766   -0.014464
   6 C :   -0.053189    0.008515
   7 C :    0.038028    0.039871
   8 H :    0.060518    0.001933
   9 H :    0.067440    0.001134
  10 C :   -0.046773    0.011414
  11 H :    0.067076    0.000716
  12 H :    0.067135    0.000711
  13 C :   -0.082607    0.001558
  14 H :    0.043009    0.000195
  15 H :    0.043059    0.000191
  16 C :   -0.087939    0.000192
  17 H :    0.042168    0.000000
  18 H :    0.042160    0.000000
  19 C :   -0.078983    0.000020
  20 H :    0.033542    0.000001
  21 H :    0.033537    0.000001
  22 C :   -0.045780    0.001805
  23 H :    0.057774    0.000174
  24 H :    0.057766    0.000177
  25 C :   -0.077894    0.000154
  26 H :    0.046015   -0.000010
  27 H :    0.045999   -0.000010
  28 C :   -0.090470    0.000058
  29 H :    0.040562    0.000006
  30 H :    0.040558    0.000006
  31 C :   -0.077046    0.000013
  32 H :    0.034934    0.000002
  33 H :    0.034931    0.000002
  34 C :   -0.005873   -0.010363
  35 H :    0.032113   -0.000005
  36 H :    0.031819   -0.000001
  37 C :   -0.075483    0.001385
  38 C :   -0.005938   -0.002945
  39 C :   -0.037993    0.001209
  40 C :   -0.029794   -0.003313
  41 C :   -0.038320    0.001210
  42 C :   -0.006339   -0.002923
  43 H :    0.051535   -0.000018
  44 H :    0.052381    0.000008
  45 H :    0.057947   -0.000006
  46 H :    0.057684   -0.000003
  47 H :    0.052476    0.000008

  Mayer bond orders larger than 0.100000
B(  0-C ,  2-C ) :   0.9324 B(  0-C ,  7-C ) :   0.1929 B(  1-C ,  5-C ) :   0.8476
B(  1-C ,  6-C ) :   0.1091 B(  1-C , 34-C ) :   2.4691 B(  2-C ,  3-C ) :   1.2956
B(  2-C ,  4-C ) :   0.1189 B(  2-C ,  7-C ) :   1.3238 B(  3-C ,  4-C ) :   1.4754
B(  3-C ,  5-C ) :   0.1131 B(  3-C , 10-C ) :   0.9590 B(  4-C ,  5-C ) :   1.4016
B(  4-C ,  8-H ) :   0.9703 B(  5-C ,  6-C ) :   1.3508 B(  5-C ,  7-C ) :   0.1365
B(  5-C , 34-C ) :   0.1205 B(  6-C ,  7-C ) :   1.4903 B(  6-C , 22-C ) :   0.9669
B(  7-C ,  9-H ) :   0.9604 B( 10-C , 11-H ) :   0.9546 B( 10-C , 12-H ) :   0.9546
B( 10-C , 13-C ) :   1.0105 B( 13-C , 14-H ) :   0.9631 B( 13-C , 15-H ) :   0.9633
B( 13-C , 16-C ) :   0.9877 B( 16-C , 17-H ) :   0.9709 B( 16-C , 18-H ) :   0.9710
B( 16-C , 19-C ) :   0.9541 B( 19-C , 20-H ) :   0.9729 B( 19-C , 21-H ) :   0.9729
B( 19-C , 35-H ) :   0.9678 B( 22-C , 23-H ) :   0.9560 B( 22-C , 24-H ) :   0.9560
B( 22-C , 25-C ) :   1.0225 B( 25-C , 26-H ) :   0.9607 B( 25-C , 27-H ) :   0.9607
B( 25-C , 28-C ) :   0.9871 B( 28-C , 29-H ) :   0.9719 B( 28-C , 30-H ) :   0.9719
B( 28-C , 31-C ) :   0.9566 B( 31-C , 32-H ) :   0.9723 B( 31-C , 33-H ) :   0.9723
B( 31-C , 36-H ) :   0.9671 B( 34-C , 37-C ) :   1.0156 B( 37-C , 38-C ) :   1.3822
B( 37-C , 42-C ) :   1.3790 B( 38-C , 39-C ) :   1.4819 B( 38-C , 45-H ) :   0.9789
B( 39-C , 40-C ) :   1.4513 B( 39-C , 47-H ) :   0.9727 B( 40-C , 41-C ) :   1.4540
B( 40-C , 43-H ) :   0.9625 B( 41-C , 42-C ) :   1.4815 B( 41-C , 44-H ) :   0.9736
B( 42-C , 46-H ) :   0.9768

FINAL SINGLE POINT ENERGY      -890.820928683648

DIPOLE MOMENT
-------------
                                X             Y             Z
Electronic contribution:     13.78146      -0.24832      -0.00193
Nuclear contribution   :    -10.80287       0.14144       0.00254
                        -----------------------------------------
Total Dipole Moment    :      2.97859      -0.10688       0.00060
                        -----------------------------------------
Magnitude (a.u.)       :      2.98051
Magnitude (Debye)      :      7.57584

Rotational constants in cm-1:     0.006709     0.004670     0.002765
Rotational constants in MHz :   201.131378   140.008553    82.884845

CHEMICAL SHIELDING SUMMARY (ppm)  --  Orbital contribution
----------------------------------------------------------

  Nucleus  Element    Isotropic     Anisotropy
  -------  -------  ------------   ------------
      8       H           96.912          9.196
      9       H           -1.924        -25.284
     11       H            7.136         28.089
     12       H            6.947         28.038
     14       H          100.763         12.089
     15       H          100.616         12.180
     17       H           -5.850         27.705
     18       H           -5.693         27.718
     20       H           45.831         10.920
     21       H           46.026         10.834
     23       H           97.565         27.781
     24       H           97.618         27.773
     26       H           47.563         26.073
     27       H           47.514         26.068
     29       H           56.390         17.631
     30       H           56.445         17.601
     32       H            3.674         21.015
     33       H            3.699         21.025
     35       H          -81.879        -80.608
     36       H          -47.686         26.187
     43       H         -120.639       -172.921
     44       H          -54.084          0.125
     45       H           88.093         19.290
     46       H           84.126         21.474
     47       H          -49.915          1.878

                             ****ORCA TERMINATED NORMALLY****
TOTAL RUN TIME: 0 days 1 hours 24 minutes 21 seconds 224 msec
