                         Program Version 5.0.4 -  RELEASE  -
|  1> ! B3LYP EPR-II AUTOAUX
|  2> %pal nprocs 16 end
|  3> *XYZFile 0 2 opt.xyz
|  4> %EPRNMR
|  5>         GTENSOR   TRUE
|  6>         NUCLEI    = ALL H {SHIFT, AISO, ADIP, AORB}
|  7>         ORI       GIAO
|  8> END
|  9>
| 10>                          ****END OF INPUT****

CARTESIAN COORDINATES (ANGSTROEM)
---------------------------------
  C     -2.775358    0.046208   -0.011751
  C      2.820255    0.009685   -0.009139
  C     -1.416126   -0.010274   -0.011347
  C     -0.684648   -1.267420   -0.014386
  C      0.690490   -1.196208   -0.013389
  C      1.407047    0.036197   -0.009702
  C      0.687689    1.279681   -0.006696
  C     -0.690449    1.243926   -0.007610
  H      1.277162   -2.115524   -0.015523
  H     -1.268852    2.166837   -0.005472
  C     -1.480792   -2.555886   -0.018568
  H     -2.154671   -2.540740   -0.897146
  H     -2.157395   -2.544715    0.857974
  C     -0.681275   -3.861204   -0.020309
  H     -0.017862   -3.890851   -0.904058
  H     -0.020683   -3.894869    0.865412
  C     -1.579450   -5.104210   -0.024628
  H     -2.246605   -5.074150    0.856659
  H     -2.243576   -5.070198   -0.908059
  C     -0.790051   -6.415615   -0.026228
  H     -0.143052   -6.494872    0.864454
  H     -0.139497   -6.490536   -0.914694
  C      1.465882    2.581608   -0.002726
  H      2.141040    2.571608    0.872700
  H      2.142655    2.575943   -0.876938
  C      0.653075    3.878460   -0.000281
  H     -0.008622    3.909115   -0.885508
  H     -0.010403    3.904750    0.883750
  C      1.540606    5.129343    0.003729
  H      2.205493    5.100499    0.886927
  H      2.207479    5.104735   -0.878099
  C      0.741236    6.434757    0.005976
  H      0.090513    6.504407    0.894697
  H      0.093010    6.509016   -0.884195
  C      4.046121   -0.034213   -0.010003
  H     -1.460807   -7.289936   -0.029701
  H      1.404972    7.314510    0.009190
  C      5.469175   -0.089851   -0.009729
  C      6.140470   -1.334126   -0.012366
  C      7.533422   -1.384522   -0.012085
  C      8.284577   -0.203110   -0.009213
  C      7.630744    1.034879   -0.006618
  C      6.238242    1.096428   -0.006877
  H      9.376146   -0.247118   -0.009009
  H      8.211876    1.960203   -0.004379
  H      5.552872   -2.254102   -0.014605
  H      5.726741    2.060809   -0.004870
  H      8.038460   -2.353485   -0.014131

 Total Charge           Charge          ....    0
 Multiplicity           Mult            ....    2
 Number of Electrons    NEL             ....  163
 Basis Dimension        Dim             ....  566

ORBITAL ENERGIES
----------------
                 SPIN UP ORBITALS
  NO   OCC          E(Eh)            E(eV)
   0   1.0000     -10.252543      -278.9859
   1   1.0000     -10.244364      -278.7633
   2   1.0000     -10.228340      -278.3273
   3   1.0000     -10.227830      -278.3134
   4   1.0000     -10.222413      -278.1660
   5   1.0000     -10.222293      -278.1627
   6   1.0000     -10.221734      -278.1475
   7   1.0000     -10.221528      -278.1419
   8   1.0000     -10.220933      -278.1257
   9   1.0000     -10.219163      -278.0776
  10   1.0000     -10.219056      -278.0746
  11   1.0000     -10.215037      -277.9653
  12   1.0000     -10.210480      -277.8413
  13   1.0000     -10.196202      -277.4528
  14   1.0000     -10.190516      -277.2980
  15   1.0000     -10.189415      -277.2681
  16   1.0000     -10.188308      -277.2380
  17   1.0000     -10.187423      -277.2139
  18   1.0000     -10.184111      -277.1237
  19   1.0000     -10.182611      -277.0829
  20   1.0000     -10.178305      -276.9658
  21   1.0000     -10.176231      -276.9093
  22   1.0000     -10.173819      -276.8437
  23   1.0000      -0.882860       -24.0239
  24   1.0000      -0.878999       -23.9188
  25   1.0000      -0.823579       -22.4107
  26   1.0000      -0.809077       -22.0161
  27   1.0000      -0.795694       -21.6519
  28   1.0000      -0.787688       -21.4341
  29   1.0000      -0.771888       -21.0042
  30   1.0000      -0.767100       -20.8738
  31   1.0000      -0.743177       -20.2229
  32   1.0000      -0.732682       -19.9373
  33   1.0000      -0.704172       -19.1615
  34   1.0000      -0.676627       -18.4120
  35   1.0000      -0.655973       -17.8499
  36   1.0000      -0.636186       -17.3115
  37   1.0000      -0.625227       -17.0133
  38   1.0000      -0.624893       -17.0042
  39   1.0000      -0.597965       -16.2715
  40   1.0000      -0.581913       -15.8347
  41   1.0000      -0.567067       -15.4307
  42   1.0000      -0.558298       -15.1921
  43   1.0000      -0.536254       -14.5922
  44   1.0000      -0.519641       -14.1402
  45   1.0000      -0.496732       -13.5168
  46   1.0000      -0.483831       -13.1657
  47   1.0000      -0.476419       -12.9640
  48   1.0000      -0.473168       -12.8756
  49   1.0000      -0.471283       -12.8243
  50   1.0000      -0.452476       -12.3125
  51   1.0000      -0.441745       -12.0205
  52   1.0000      -0.440648       -11.9907
  53   1.0000      -0.428902       -11.6710
  54   1.0000      -0.428708       -11.6658
  55   1.0000      -0.425729       -11.5847
  56   1.0000      -0.419339       -11.4108
  57   1.0000      -0.413937       -11.2638
  58   1.0000      -0.410593       -11.1728
  59   1.0000      -0.399068       -10.8592
  60   1.0000      -0.383136       -10.4257
  61   1.0000      -0.378031       -10.2867
  62   1.0000      -0.376063       -10.2332
  63   1.0000      -0.368925       -10.0390
  64   1.0000      -0.367527       -10.0009
  65   1.0000      -0.365036        -9.9331
  66   1.0000      -0.360664        -9.8142
  67   1.0000      -0.349109        -9.4997
  68   1.0000      -0.336294        -9.1510
  69   1.0000      -0.332208        -9.0398
  70   1.0000      -0.331673        -9.0253
  71   1.0000      -0.328503        -8.9390
  72   1.0000      -0.327088        -8.9005
  73   1.0000      -0.323477        -8.8023
  74   1.0000      -0.322410        -8.7732
  75   1.0000      -0.290606        -7.9078
  76   1.0000      -0.288270        -7.8442
  77   1.0000      -0.274625        -7.4729
  78   1.0000      -0.258522        -7.0347
  79   1.0000      -0.249577        -6.7913
  80   1.0000      -0.236109        -6.4248
  81   1.0000      -0.163142        -4.4393
  82   0.0000      -0.113686        -3.0936
  83   0.0000      -0.044762        -1.2180
  84   0.0000      -0.029333        -0.7982
  85   0.0000      -0.011153        -0.3035
  86   0.0000       0.004968         0.1352

                 SPIN DOWN ORBITALS
  NO   OCC          E(Eh)            E(eV)
   0   1.0000     -10.252842      -278.9940
   1   1.0000     -10.244315      -278.7620
   2   1.0000     -10.228544      -278.3328
   3   1.0000     -10.226741      -278.2838
   4   1.0000     -10.222470      -278.1675
   5   1.0000     -10.222350      -278.1643
   6   1.0000     -10.221626      -278.1446
   7   1.0000     -10.221587      -278.1435
   8   1.0000     -10.220639      -278.1177
   9   1.0000     -10.219135      -278.0768
  10   1.0000     -10.219029      -278.0739
  11   1.0000     -10.213654      -277.9277
  12   1.0000     -10.210356      -277.8379
  13   1.0000     -10.196149      -277.4513
  14   1.0000     -10.191420      -277.3226
  15   1.0000     -10.189283      -277.2645
  16   1.0000     -10.188308      -277.2379
  17   1.0000     -10.187423      -277.2139
  18   1.0000     -10.184089      -277.1231
  19   1.0000     -10.182606      -277.0828
  20   1.0000     -10.176231      -276.9093
  21   1.0000     -10.173819      -276.8437
  22   1.0000     -10.164395      -276.5873
  23   1.0000      -0.882063       -24.0021
  24   1.0000      -0.878512       -23.9055
  25   1.0000      -0.821870       -22.3642
  26   1.0000      -0.808671       -22.0051
  27   1.0000      -0.795527       -21.6474
  28   1.0000      -0.784687       -21.3524
  29   1.0000      -0.771223       -20.9860
  30   1.0000      -0.767150       -20.8752
  31   1.0000      -0.739754       -20.1297
  32   1.0000      -0.732528       -19.9331
  33   1.0000      -0.703318       -19.1383
  34   1.0000      -0.669135       -18.2081
  35   1.0000      -0.655168       -17.8280
  36   1.0000      -0.634056       -17.2535
  37   1.0000      -0.625252       -17.0140
  38   1.0000      -0.624559       -16.9951
  39   1.0000      -0.596185       -16.2230
  40   1.0000      -0.581289       -15.8177
  41   1.0000      -0.566475       -15.4146
  42   1.0000      -0.556617       -15.1463
  43   1.0000      -0.525908       -14.3107
  44   1.0000      -0.517611       -14.0849
  45   1.0000      -0.496552       -13.5119
  46   1.0000      -0.479685       -13.0529
  47   1.0000      -0.476399       -12.9635
  48   1.0000      -0.472903       -12.8683
  49   1.0000      -0.471225       -12.8227
  50   1.0000      -0.452459       -12.3120
  51   1.0000      -0.440688       -11.9917
  52   1.0000      -0.440171       -11.9777
  53   1.0000      -0.428902       -11.6710
  54   1.0000      -0.427513       -11.6332
  55   1.0000      -0.425340       -11.5741
  56   1.0000      -0.419238       -11.4080
  57   1.0000      -0.413457       -11.2507
  58   1.0000      -0.407355       -11.0847
  59   1.0000      -0.399344       -10.8667
  60   1.0000      -0.383235       -10.4284
  61   1.0000      -0.377979       -10.2853
  62   1.0000      -0.374025       -10.1777
  63   1.0000      -0.368071       -10.0157
  64   1.0000      -0.367354        -9.9962
  65   1.0000      -0.363225        -9.8839
  66   1.0000      -0.360503        -9.8098
  67   1.0000      -0.349315        -9.5054
  68   1.0000      -0.336206        -9.1486
  69   1.0000      -0.331823        -9.0293
  70   1.0000      -0.331299        -9.0151
  71   1.0000      -0.328378        -8.9356
  72   1.0000      -0.327105        -8.9010
  73   1.0000      -0.322408        -8.7732
  74   1.0000      -0.322086        -8.7644
  75   1.0000      -0.289664        -7.8822
  76   1.0000      -0.288193        -7.8421
  77   1.0000      -0.274768        -7.4768
  78   1.0000      -0.257882        -7.0173
  79   1.0000      -0.234755        -6.3880
  80   1.0000      -0.226031        -6.1506
  81   0.0000      -0.107497        -2.9251
  82   0.0000      -0.042250        -1.1497
  83   0.0000      -0.029470        -0.8019
  84   0.0000      -0.013031        -0.3546
  85   0.0000      -0.010567        -0.2875

MULLIKEN ATOMIC CHARGES AND SPIN POPULATIONS
--------------------------------------------
   0 C :   -0.588892    0.978577
   1 C :   -0.362397    0.010518
   2 C :    0.352934   -0.078569
   3 C :    0.336133    0.003563
   4 C :   -0.428003    0.004008
   5 C :    0.559161   -0.019107
   6 C :    0.252492    0.003134
   7 C :   -0.354485    0.073579
   8 H :    0.132250    0.003782
   9 H :    0.152198   -0.000922
  10 C :   -0.359077    0.041036
  11 H :    0.163437   -0.002781
  12 H :    0.163482   -0.002786
  13 C :   -0.266694    0.001947
  14 H :    0.136687    0.000162
  15 H :    0.136797    0.000157
  16 C :   -0.252585    0.000075
  17 H :    0.144599   -0.000012
  18 H :    0.144585   -0.000013
  19 C :   -0.508926   -0.000327
  20 H :    0.156810   -0.000001
  21 H :    0.156780   -0.000001
  22 C :   -0.353640    0.004327
  23 H :    0.149857    0.000190
  24 H :    0.149731    0.000192
  25 C :   -0.262319   -0.001072
  26 H :    0.141792   -0.000013
  27 H :    0.141754   -0.000013
  28 C :   -0.256129    0.000005
  29 H :    0.140896    0.000004
  30 H :    0.140878    0.000004
  31 C :   -0.506691    0.000050
  32 H :    0.159498    0.000002
  33 H :    0.159510    0.000002
  34 C :   -0.281691   -0.015171
  35 H :    0.145014   -0.000012
  36 H :    0.142822   -0.000003
  37 C :    0.587265    0.002764
  38 C :   -0.271476   -0.003677
  39 C :   -0.095485    0.001977
  40 C :   -0.112895   -0.004321
  41 C :   -0.098033    0.001974
  42 C :   -0.266726   -0.003681
  43 H :    0.111702    0.000242
  44 H :    0.110347   -0.000094
  45 H :    0.123301    0.000198
  46 H :    0.123000    0.000199
  47 H :    0.110435   -0.000092
Sum of atomic charges         :   -0.0000000

LOEWDIN ATOMIC CHARGES AND SPIN POPULATIONS
-------------------------------------------
   0 C :   -0.115022    0.880527
   1 C :   -0.026137    0.004105
   2 C :   -0.214753    0.044113
   3 C :   -0.003222    0.027704
   4 C :   -0.017091    0.004902
   5 C :   -0.020952   -0.014785
   6 C :   -0.055037    0.008635
   7 C :    0.036839    0.040132
   8 H :    0.062924    0.002023
   9 H :    0.070068    0.001138
  10 C :   -0.051415    0.011720
  11 H :    0.070052    0.000720
  12 H :    0.070085    0.000721
  13 C :   -0.087554    0.001594
  14 H :    0.045409    0.000208
  15 H :    0.045442    0.000205
  16 C :   -0.093914    0.000202
  17 H :    0.044838    0.000000
  18 H :    0.044833    0.000000
  19 C :   -0.085182    0.000024
  20 H :    0.035897    0.000001
  21 H :    0.035893    0.000002
  22 C :   -0.049896    0.001770
  23 H :    0.060210    0.000182
  24 H :    0.060207    0.000183
  25 C :   -0.082790    0.000150
  26 H :    0.048518   -0.000011
  27 H :    0.048504   -0.000011
  28 C :   -0.096388    0.000059
  29 H :    0.043131    0.000006
  30 H :    0.043128    0.000006
  31 C :   -0.083266    0.000013
  32 H :    0.037338    0.000002
  33 H :    0.037336    0.000002
  34 C :   -0.004781   -0.010715
  35 H :    0.034370   -0.000005
  36 H :    0.034076   -0.000001
  37 C :   -0.077251    0.001425
  38 C :   -0.007459   -0.003010
  39 C :   -0.040560    0.001217
  40 C :   -0.032128   -0.003382
  41 C :   -0.040905    0.001219
  42 C :   -0.007806   -0.002988
  43 H :    0.054078   -0.000014
  44 H :    0.054906    0.000008
  45 H :    0.060331   -0.000003
  46 H :    0.060100   -0.000000
  47 H :    0.054993    0.000008

  Mayer bond orders larger than 0.100000
B(  0-C ,  2-C ) :   0.9343 B(  0-C ,  7-C ) :   0.1962 B(  1-C ,  5-C ) :   0.8475
B(  1-C ,  6-C ) :   0.1111 B(  1-C , 34-C ) :   2.4671 B(  2-C ,  3-C ) :   1.2980
B(  2-C ,  4-C ) :   0.1209 B(  2-C ,  7-C ) :   1.3256 B(  3-C ,  4-C ) :   1.4773
B(  3-C ,  5-C ) :   0.1181 B(  3-C , 10-C ) :   0.9605 B(  4-C ,  5-C ) :   1.4031
B(  4-C ,  8-H ) :   0.9717 B(  5-C ,  6-C ) :   1.3535 B(  5-C ,  7-C ) :   0.1412
B(  5-C , 34-C ) :   0.1269 B(  6-C ,  7-C ) :   1.4909 B(  6-C , 22-C ) :   0.9678
B(  7-C ,  9-H ) :   0.9610 B( 10-C , 11-H ) :   0.9543 B( 10-C , 12-H ) :   0.9543
B( 10-C , 13-C ) :   1.0113 B( 13-C , 14-H ) :   0.9624 B( 13-C , 15-H ) :   0.9625
B( 13-C , 16-C ) :   0.9896 B( 16-C , 17-H ) :   0.9703 B( 16-C , 18-H ) :   0.9704
B( 16-C , 19-C ) :   0.9537 B( 19-C , 20-H ) :   0.9729 B( 19-C , 21-H ) :   0.9729
B( 19-C , 35-H ) :   0.9677 B( 22-C , 23-H ) :   0.9558 B( 22-C , 24-H ) :   0.9558
B( 22-C , 25-C ) :   1.0240 B( 25-C , 26-H ) :   0.9599 B( 25-C , 27-H ) :   0.9599
B( 25-C , 28-C ) :   0.9889 B( 28-C , 29-H ) :   0.9713 B( 28-C , 30-H ) :   0.9713
B( 28-C , 31-C ) :   0.9563 B( 31-C , 32-H ) :   0.9723 B( 31-C , 33-H ) :   0.9723
B( 31-C , 36-H ) :   0.9669 B( 34-C , 37-C ) :   1.0173 B( 37-C , 38-C ) :   1.3825
B( 37-C , 42-C ) :   1.3799 B( 38-C , 39-C ) :   1.4817 B( 38-C , 40-C ) :   0.1008
B( 38-C , 45-H ) :   0.9797 B( 39-C , 40-C ) :   1.4513 B( 39-C , 47-H ) :   0.9732
B( 40-C , 41-C ) :   1.4538 B( 40-C , 42-C ) :   0.1022 B( 40-C , 43-H ) :   0.9629
B( 41-C , 42-C ) :   1.4815 B( 41-C , 44-H ) :   0.9740 B( 42-C , 46-H ) :   0.9775

FINAL SINGLE POINT ENERGY      -890.819294911127

DIPOLE MOMENT
-------------
                                X             Y             Z
Electronic contribution:     13.81485      -0.24273       0.00093
Nuclear contribution   :    -10.82369       0.14307      -0.00029
                        -----------------------------------------
Total Dipole Moment    :      2.99116      -0.09965       0.00064
                        -----------------------------------------
Magnitude (a.u.)       :      2.99282
Magnitude (Debye)      :      7.60714

Rotational constants in cm-1:     0.006740     0.004685     0.002775
Rotational constants in MHz :   202.049713   140.466397    83.204171

CHEMICAL SHIELDING SUMMARY (ppm)  --  Orbital contribution
----------------------------------------------------------

  Nucleus  Element    Isotropic     Anisotropy
  -------  -------  ------------   ------------
      8       H           24.957         16.609
      9       H            8.243         -4.842
     11       H           20.696         16.280
     12       H           20.662         16.307
     14       H           31.192          7.458
     15       H           31.192          7.455
     17       H           29.428          5.672
     18       H           29.430          5.682
     20       H           30.730          8.591
     21       H           30.731          8.591
     23       H           29.727          7.082
     24       H           29.726          7.097
     26       H           29.937          6.968
     27       H           29.935          6.981
     29       H           30.204          6.904
     30       H           30.204          6.907
     32       H           30.417          7.619
     33       H           30.417          7.620
     35       H           30.287         10.118
     36       H           30.369         10.504
     43       H           24.220          4.580
     44       H           24.283          5.700
     45       H           24.167          8.204
     46       H           24.204          8.674
     47       H           24.306          5.508

                             ****ORCA TERMINATED NORMALLY****
TOTAL RUN TIME: 0 days 1 hours 26 minutes 8 seconds 319 msec
