                         Program Version 5.0.4 -  RELEASE  -
|  1> ! B3LYP cc-pVDZ OPT
|  2> %pal nprocs 16 end
|  3> *XYZFile 0 4 model.xyz
|  4>
|  5>                          ****END OF INPUT****
 Total Charge           Charge          ....    0
 Multiplicity           Mult            ....    4
 Number of Electrons    NEL             ....  163
FINAL SINGLE POINT ENERGY      -890.698188482783
FINAL SINGLE POINT ENERGY      -890.698191032005
                    ***********************HURRAY********************

CARTESIAN COORDINATES (ANGSTROEM)
---------------------------------
  C     -2.832372    0.020293   -0.012674
  C      2.815948   -0.003360   -0.008875
  C     -1.420433    0.002453   -0.011651
  C     -0.709375   -1.248719   -0.014317
  C      0.676247   -1.190347   -0.013098
  C      1.395990    0.032013   -0.009547
  C      0.690981    1.274503   -0.006793
  C     -0.695552    1.234643   -0.007923
  H      1.255523   -2.114320   -0.015016
  H     -1.274064    2.157630   -0.005970
  C     -1.489895   -2.544872   -0.018304
  H     -2.165019   -2.534890   -0.894888
  H     -2.166965   -2.539083    0.856814
  C     -0.678575   -3.843149   -0.020503
  H     -0.014665   -3.868142   -0.904151
  H     -0.016787   -3.872413    0.864608
  C     -1.565109   -5.094476   -0.024598
  H     -2.232311   -5.070651    0.856894
  H     -2.230018   -5.066520   -0.907703
  C     -0.764607   -6.399272   -0.026630
  H     -0.116223   -6.472896    0.863534
  H     -0.113640   -6.468533   -0.915256
  C      1.471273    2.575323   -0.002841
  H      2.146769    2.566888    0.872422
  H      2.148153    2.571347   -0.877069
  C      0.658643    3.872512   -0.000192
  H     -0.003508    3.902839   -0.885023
  H     -0.005190    3.898229    0.883519
  C      1.545480    5.123771    0.003914
  H      2.210563    5.095343    0.886947
  H      2.212467    5.099765   -0.877811
  C      0.745911    6.429167    0.006343
  H      0.095138    6.498653    0.895068
  H      0.097365    6.503336   -0.883633
  C      4.039703   -0.047094   -0.010051
  H     -1.427402   -7.279815   -0.029757
  H      1.409174    7.309394    0.009496
  C      5.464853   -0.099872   -0.009745
  C      6.139075   -1.341626   -0.011166
  C      7.532527   -1.388475   -0.010865
  C      8.280425   -0.205272   -0.009185
  C      7.623150    1.030678   -0.007808
  C      6.230136    1.087990   -0.008102
  H      9.372096   -0.246369   -0.008970
  H      8.201473    1.957801   -0.006530
  H      5.554032   -2.263250   -0.012463
  H      5.715792    2.050851   -0.007084
  H      8.040096   -2.356142   -0.011943

 Multiplicity           Mult            ....    4
 Number of Electrons    NEL             ....  163
 Basis Dimension        Dim             ....  447

ORBITAL ENERGIES
----------------
                 SPIN UP ORBITALS
  NO   OCC          E(Eh)            E(eV)
   0   1.0000     -10.240833      -278.6672
   1   1.0000     -10.222447      -278.1669
   2   1.0000     -10.215830      -277.9869
   3   1.0000     -10.212339      -277.8919
   4   1.0000     -10.203283      -277.6455
   5   1.0000     -10.200085      -277.5584
   6   1.0000     -10.196962      -277.4734
   7   1.0000     -10.196829      -277.4698
   8   1.0000     -10.195707      -277.4393
   9   1.0000     -10.194924      -277.4180
  10   1.0000     -10.194770      -277.4138
  11   1.0000     -10.193461      -277.3782
  12   1.0000     -10.191148      -277.3152
  13   1.0000     -10.190169      -277.2886
  14   1.0000     -10.188676      -277.2480
  15   1.0000     -10.187371      -277.2125
  16   1.0000     -10.186946      -277.2009
  17   1.0000     -10.182886      -277.0904
  18   1.0000     -10.182481      -277.0794
  19   1.0000     -10.182217      -277.0722
  20   1.0000     -10.181927      -277.0643
  21   1.0000     -10.176245      -276.9097
  22   1.0000     -10.175938      -276.9014
  23   1.0000      -0.875303       -23.8182
  24   1.0000      -0.863110       -23.4864
  25   1.0000      -0.819568       -22.3016
  26   1.0000      -0.797731       -21.7074
  27   1.0000      -0.795943       -21.6587
  28   1.0000      -0.777865       -21.1668
  29   1.0000      -0.766627       -20.8610
  30   1.0000      -0.750814       -20.4307
  31   1.0000      -0.736562       -20.0429
  32   1.0000      -0.724461       -19.7136
  33   1.0000      -0.701636       -19.0925
  34   1.0000      -0.674626       -18.3575
  35   1.0000      -0.653615       -17.7858
  36   1.0000      -0.626609       -17.0509
  37   1.0000      -0.615501       -16.7486
  38   1.0000      -0.608673       -16.5628
  39   1.0000      -0.596885       -16.2421
  40   1.0000      -0.579975       -15.7819
  41   1.0000      -0.565191       -15.3796
  42   1.0000      -0.554199       -15.0805
  43   1.0000      -0.534618       -14.5477
  44   1.0000      -0.507779       -13.8174
  45   1.0000      -0.479942       -13.0599
  46   1.0000      -0.478766       -13.0279
  47   1.0000      -0.471932       -12.8419
  48   1.0000      -0.470238       -12.7958
  49   1.0000      -0.457364       -12.4455
  50   1.0000      -0.437374       -11.9016
  51   1.0000      -0.435900       -11.8614
  52   1.0000      -0.426736       -11.6121
  53   1.0000      -0.424757       -11.5582
  54   1.0000      -0.423957       -11.5365
  55   1.0000      -0.423135       -11.5141
  56   1.0000      -0.417578       -11.3629
  57   1.0000      -0.412817       -11.2333
  58   1.0000      -0.410246       -11.1633
  59   1.0000      -0.385020       -10.4769
  60   1.0000      -0.381409       -10.3787
  61   1.0000      -0.377637       -10.2760
  62   1.0000      -0.370416       -10.0795
  63   1.0000      -0.366154        -9.9636
  64   1.0000      -0.360615        -9.8128
  65   1.0000      -0.358950        -9.7675
  66   1.0000      -0.350205        -9.5296
  67   1.0000      -0.346046        -9.4164
  68   1.0000      -0.343319        -9.3422
  69   1.0000      -0.333732        -9.0813
  70   1.0000      -0.330449        -8.9920
  71   1.0000      -0.327229        -8.9044
  72   1.0000      -0.326185        -8.8759
  73   1.0000      -0.322967        -8.7884
  74   1.0000      -0.321783        -8.7562
  75   1.0000      -0.321254        -8.7418
  76   1.0000      -0.291180        -7.9234
  77   1.0000      -0.267694        -7.2843
  78   1.0000      -0.259152        -7.0519
  79   1.0000      -0.249961        -6.8018
  80   1.0000      -0.237480        -6.4622
  81   1.0000      -0.225047        -6.1238
  82   1.0000      -0.180593        -4.9142
  83   0.0000      -0.041950        -1.1415
  84   0.0000      -0.010572        -0.2877
  85   0.0000      -0.002811        -0.0765
  86   0.0000       0.012341         0.3358
  87   0.0000       0.045795         1.2462

                 SPIN DOWN ORBITALS
  NO   OCC          E(Eh)            E(eV)
   0   1.0000     -10.222461      -278.1673
   1   1.0000     -10.216332      -278.0005
   2   1.0000     -10.208822      -277.7962
   3   1.0000     -10.201659      -277.6012
   4   1.0000     -10.201605      -277.5998
   5   1.0000     -10.199067      -277.5307
   6   1.0000     -10.196430      -277.4590
   7   1.0000     -10.196298      -277.4554
   8   1.0000     -10.195418      -277.4314
   9   1.0000     -10.195160      -277.4244
  10   1.0000     -10.194752      -277.4133
  11   1.0000     -10.192627      -277.3555
  12   1.0000     -10.189567      -277.2722
  13   1.0000     -10.189238      -277.2633
  14   1.0000     -10.188708      -277.2488
  15   1.0000     -10.187218      -277.2083
  16   1.0000     -10.186769      -277.1961
  17   1.0000     -10.182837      -277.0891
  18   1.0000     -10.182476      -277.0793
  19   1.0000     -10.182216      -277.0722
  20   1.0000     -10.181927      -277.0643
  21   1.0000     -10.176247      -276.9098
  22   1.0000     -10.175937      -276.9013
  23   1.0000      -0.868685       -23.6381
  24   1.0000      -0.862336       -23.4653
  25   1.0000      -0.815239       -22.1838
  26   1.0000      -0.795680       -21.6516
  27   1.0000      -0.790437       -21.5089
  28   1.0000      -0.773028       -21.0352
  29   1.0000      -0.762925       -20.7602
  30   1.0000      -0.750313       -20.4171
  31   1.0000      -0.732966       -19.9450
  32   1.0000      -0.719542       -19.5797
  33   1.0000      -0.698814       -19.0157
  34   1.0000      -0.652193       -17.7471
  35   1.0000      -0.649895       -17.6846
  36   1.0000      -0.622985       -16.9523
  37   1.0000      -0.613010       -16.6808
  38   1.0000      -0.608347       -16.5540
  39   1.0000      -0.590650       -16.0724
  40   1.0000      -0.579458       -15.7679
  41   1.0000      -0.561743       -15.2858
  42   1.0000      -0.539110       -14.6699
  43   1.0000      -0.515209       -14.0196
  44   1.0000      -0.505371       -13.7519
  45   1.0000      -0.478205       -13.0126
  46   1.0000      -0.472403       -12.8547
  47   1.0000      -0.471240       -12.8231
  48   1.0000      -0.470218       -12.7953
  49   1.0000      -0.456999       -12.4356
  50   1.0000      -0.435500       -11.8506
  51   1.0000      -0.429744       -11.6939
  52   1.0000      -0.423812       -11.5325
  53   1.0000      -0.423309       -11.5188
  54   1.0000      -0.422680       -11.5017
  55   1.0000      -0.422474       -11.4961
  56   1.0000      -0.416967       -11.3463
  57   1.0000      -0.410494       -11.1701
  58   1.0000      -0.399223       -10.8634
  59   1.0000      -0.381886       -10.3916
  60   1.0000      -0.373147       -10.1538
  61   1.0000      -0.368960       -10.0399
  62   1.0000      -0.365515        -9.9462
  63   1.0000      -0.361199        -9.8287
  64   1.0000      -0.357367        -9.7245
  65   1.0000      -0.357312        -9.7230
  66   1.0000      -0.349881        -9.5208
  67   1.0000      -0.340812        -9.2740
  68   1.0000      -0.333576        -9.0771
  69   1.0000      -0.329207        -8.9582
  70   1.0000      -0.326358        -8.8806
  71   1.0000      -0.325421        -8.8552
  72   1.0000      -0.322721        -8.7817
  73   1.0000      -0.320396        -8.7184
  74   1.0000      -0.315046        -8.5728
  75   1.0000      -0.275448        -7.4953
  76   1.0000      -0.267191        -7.2706
  77   1.0000      -0.257743        -7.0135
  78   1.0000      -0.242344        -6.5945
  79   1.0000      -0.219993        -5.9863
  80   0.0000      -0.158425        -4.3110
  81   0.0000      -0.085287        -2.3208
  82   0.0000      -0.031423        -0.8551
  83   0.0000      -0.025140        -0.6841
  84   0.0000      -0.009340        -0.2542

MULLIKEN ATOMIC CHARGES AND SPIN POPULATIONS
--------------------------------------------
   0 C :   -0.197837    2.537196
   1 C :    0.253392   -0.088993
   2 C :    0.117017   -0.155127
   3 C :   -0.048890    0.251131
   4 C :    0.006992   -0.116545
   5 C :   -0.173141    0.234109
   6 C :   -0.072670   -0.116371
   7 C :    0.035129    0.246907
   8 H :   -0.054679    0.009191
   9 H :   -0.049502   -0.002331
  10 C :    0.047880   -0.007749
  11 H :    0.029242    0.009255
  12 H :    0.029231    0.009252
  13 C :   -0.036707    0.002905
  14 H :    0.016751    0.000424
  15 H :    0.016720    0.000422
  16 C :   -0.024458   -0.000044
  17 H :    0.006205    0.000129
  18 H :    0.006203    0.000129
  19 C :    0.002640   -0.000122
  20 H :    0.016927    0.000013
  21 H :    0.016917    0.000013
  22 C :    0.039239    0.013212
  23 H :    0.031675   -0.003846
  24 H :    0.031682   -0.003845
  25 C :   -0.033668   -0.000645
  26 H :    0.016068    0.000069
  27 H :    0.016084    0.000069
  28 C :   -0.025225   -0.000077
  29 H :    0.005261    0.000037
  30 H :    0.005256    0.000037
  31 C :    0.003963    0.000049
  32 H :    0.017115   -0.000006
  33 H :    0.017124   -0.000006
  34 C :    0.149469    0.142260
  35 H :    0.012976   -0.000024
  36 H :    0.012446   -0.000006
  37 C :   -0.251716   -0.032894
  38 C :    0.030737    0.036962
  39 C :    0.040885   -0.019489
  40 C :    0.032966    0.040429
  41 C :    0.040678   -0.019465
  42 C :    0.028057    0.036925
  43 H :   -0.027778   -0.001853
  44 H :   -0.027784    0.000774
  45 H :   -0.040933   -0.001627
  46 H :   -0.040191   -0.001612
  47 H :   -0.027749    0.000776
Sum of atomic charges         :    0.0000000

LOEWDIN ATOMIC CHARGES AND SPIN POPULATIONS
-------------------------------------------
   0 C :    0.027888    2.380816
   1 C :   -0.019251   -0.041413
   2 C :   -0.091093    0.043049
   3 C :   -0.009309    0.192136
   4 C :   -0.008116   -0.064826
   5 C :   -0.051464    0.169577
   6 C :   -0.009564   -0.064332
   7 C :   -0.010164    0.196939
   8 H :    0.029873    0.003220
   9 H :    0.027552    0.004349
  10 C :   -0.035238    0.008516
  11 H :    0.037314    0.008501
  12 H :    0.037308    0.008504
  13 C :   -0.043029    0.002189
  14 H :    0.024643    0.000300
  15 H :    0.024644    0.000298
  16 C :   -0.046956    0.000154
  17 H :    0.024159    0.000108
  18 H :    0.024159    0.000108
  19 C :   -0.067435   -0.000058
  20 H :    0.025158    0.000014
  21 H :    0.025157    0.000014
  22 C :   -0.033678    0.002480
  23 H :    0.038542   -0.002933
  24 H :    0.038540   -0.002932
  25 C :   -0.043409    0.000126
  26 H :    0.024357    0.000112
  27 H :    0.024355    0.000112
  28 C :   -0.047153    0.000030
  29 H :    0.023821    0.000003
  30 H :    0.023817    0.000003
  31 C :   -0.067451    0.000021
  32 H :    0.025238   -0.000004
  33 H :    0.025239   -0.000004
  34 C :   -0.022310    0.104240
  35 H :    0.027635   -0.000016
  36 H :    0.027421   -0.000003
  37 C :   -0.053652   -0.014876
  38 C :   -0.001608    0.028575
  39 C :   -0.023886   -0.011497
  40 C :   -0.021737    0.031259
  41 C :   -0.024033   -0.011481
  42 C :   -0.002502    0.028543
  43 H :    0.028008    0.000116
  44 H :    0.029261   -0.000045
  45 H :    0.029856    0.000021
  46 H :    0.029774    0.000030
  47 H :    0.029320   -0.000045

  Mayer bond orders larger than 0.100000
B(  0-C ,  2-C ) :   1.2831 B(  1-C ,  5-C ) :   0.9206 B(  1-C , 34-C ) :   1.7428
B(  1-C , 37-C ) :  -0.1710 B(  2-C ,  3-C ) :   1.2595 B(  2-C ,  7-C ) :   1.2375
B(  3-C ,  4-C ) :   1.4812 B(  3-C , 10-C ) :   1.0769 B(  4-C ,  5-C ) :   1.3441
B(  4-C ,  8-H ) :   0.9228 B(  5-C ,  6-C ) :   1.3551 B(  6-C ,  7-C ) :   1.4900
B(  6-C , 22-C ) :   1.0906 B(  7-C ,  9-H ) :   0.9184 B( 10-C , 11-H ) :   0.9010
B( 10-C , 12-H ) :   0.9010 B( 10-C , 13-C ) :   1.1033 B( 13-C , 14-H ) :   0.9295
B( 13-C , 15-H ) :   0.9295 B( 13-C , 16-C ) :   1.0749 B( 16-C , 17-H ) :   0.9413
B( 16-C , 18-H ) :   0.9413 B( 16-C , 19-C ) :   1.1059 B( 19-C , 20-H ) :   0.9663
B( 19-C , 21-H ) :   0.9663 B( 19-C , 35-H ) :   0.9619 B( 22-C , 23-H ) :   0.8979
B( 22-C , 24-H ) :   0.8980 B( 22-C , 25-C ) :   1.1041 B( 25-C , 26-H ) :   0.9292
B( 25-C , 27-H ) :   0.9292 B( 25-C , 28-C ) :   1.0752 B( 28-C , 29-H ) :   0.9411
B( 28-C , 30-H ) :   0.9411 B( 28-C , 31-C ) :   1.1061 B( 31-C , 32-H ) :   0.9662
B( 31-C , 33-H ) :   0.9662 B( 31-C , 36-H ) :   0.9617 B( 34-C , 37-C ) :   0.9346
B( 37-C , 38-C ) :   1.4371 B( 37-C , 42-C ) :   1.4348 B( 38-C , 39-C ) :   1.4719
B( 38-C , 45-H ) :   0.9402 B( 39-C , 40-C ) :   1.4427 B( 39-C , 47-H ) :   0.9379
B( 40-C , 41-C ) :   1.4421 B( 40-C , 43-H ) :   0.9433 B( 41-C , 42-C ) :   1.4720
B( 41-C , 44-H ) :   0.9379 B( 42-C , 46-H ) :   0.9406

FINAL SINGLE POINT ENERGY      -890.698191020662

DIPOLE MOMENT
-------------
                                X             Y             Z
Electronic contribution:     11.10088      -0.25285      -0.00083
Nuclear contribution   :    -10.65062       0.21075       0.00090
                        -----------------------------------------
Total Dipole Moment    :      0.45026      -0.04210       0.00007
                        -----------------------------------------
Magnitude (a.u.)       :      0.45223
Magnitude (Debye)      :      1.14947

Rotational constants in cm-1:     0.006748     0.004694     0.002780
Rotational constants in MHz :   202.285640   140.716091    83.331498

                             ****ORCA TERMINATED NORMALLY****
TOTAL RUN TIME: 0 days 0 hours 8 minutes 7 seconds 328 msec
