                         Program Version 5.0.4 -  RELEASE  -
|  1> ! B3LYP cc-pVDZ OPT
|  2> %pal nprocs 16 end
|  3> *XYZFile 0 2 model.xyz
|  4>
|  5>                          ****END OF INPUT****
 Total Charge           Charge          ....    0
 Multiplicity           Mult            ....    2
 Number of Electrons    NEL             ....  163
FINAL SINGLE POINT ENERGY      -890.750968114028
FINAL SINGLE POINT ENERGY      -890.752273507287
FINAL SINGLE POINT ENERGY      -890.752802143078
FINAL SINGLE POINT ENERGY      -890.752846006287
FINAL SINGLE POINT ENERGY      -890.752862835064
FINAL SINGLE POINT ENERGY      -890.752869857574
FINAL SINGLE POINT ENERGY      -890.752875877310
FINAL SINGLE POINT ENERGY      -890.752879343666
                    ***********************HURRAY********************

CARTESIAN COORDINATES (ANGSTROEM)
---------------------------------
  C     -2.775358    0.046208   -0.011751
  C      2.820255    0.009685   -0.009139
  C     -1.416126   -0.010274   -0.011347
  C     -0.684648   -1.267420   -0.014386
  C      0.690490   -1.196208   -0.013389
  C      1.407047    0.036197   -0.009702
  C      0.687689    1.279681   -0.006696
  C     -0.690449    1.243926   -0.007610
  H      1.277162   -2.115524   -0.015523
  H     -1.268852    2.166837   -0.005472
  C     -1.480792   -2.555886   -0.018568
  H     -2.154671   -2.540740   -0.897146
  H     -2.157395   -2.544715    0.857974
  C     -0.681275   -3.861204   -0.020309
  H     -0.017862   -3.890851   -0.904058
  H     -0.020683   -3.894869    0.865412
  C     -1.579450   -5.104210   -0.024628
  H     -2.246605   -5.074150    0.856659
  H     -2.243576   -5.070198   -0.908059
  C     -0.790051   -6.415615   -0.026228
  H     -0.143052   -6.494872    0.864454
  H     -0.139497   -6.490536   -0.914694
  C      1.465882    2.581608   -0.002726
  H      2.141040    2.571608    0.872700
  H      2.142655    2.575943   -0.876938
  C      0.653075    3.878460   -0.000281
  H     -0.008622    3.909115   -0.885508
  H     -0.010403    3.904750    0.883750
  C      1.540606    5.129343    0.003729
  H      2.205493    5.100499    0.886927
  H      2.207479    5.104735   -0.878099
  C      0.741236    6.434757    0.005976
  H      0.090513    6.504407    0.894697
  H      0.093010    6.509016   -0.884195
  C      4.046121   -0.034213   -0.010003
  H     -1.460807   -7.289936   -0.029701
  H      1.404972    7.314510    0.009190
  C      5.469175   -0.089851   -0.009729
  C      6.140470   -1.334126   -0.012366
  C      7.533422   -1.384522   -0.012085
  C      8.284577   -0.203110   -0.009213
  C      7.630744    1.034879   -0.006618
  C      6.238242    1.096428   -0.006877
  H      9.376146   -0.247118   -0.009009
  H      8.211876    1.960203   -0.004379
  H      5.552872   -2.254102   -0.014605
  H      5.726741    2.060809   -0.004870
  H      8.038460   -2.353485   -0.014131

 Multiplicity           Mult            ....    2
 Number of Electrons    NEL             ....  163
 Basis Dimension        Dim             ....  447

ORBITAL ENERGIES
----------------
                 SPIN UP ORBITALS
  NO   OCC          E(Eh)            E(eV)
   0   1.0000     -10.244412      -278.7646
   1   1.0000     -10.218492      -278.0593
   2   1.0000     -10.218162      -278.0503
   3   1.0000     -10.215825      -277.9867
   4   1.0000     -10.207877      -277.7705
   5   1.0000     -10.207316      -277.7552
   6   1.0000     -10.199669      -277.5471
   7   1.0000     -10.199545      -277.5437
   8   1.0000     -10.199328      -277.5378
   9   1.0000     -10.198150      -277.5058
  10   1.0000     -10.197790      -277.4960
  11   1.0000     -10.197173      -277.4792
  12   1.0000     -10.197044      -277.4757
  13   1.0000     -10.196272      -277.4547
  14   1.0000     -10.195019      -277.4206
  15   1.0000     -10.191504      -277.3249
  16   1.0000     -10.191338      -277.3204
  17   1.0000     -10.187273      -277.2098
  18   1.0000     -10.185412      -277.1591
  19   1.0000     -10.185314      -277.1565
  20   1.0000     -10.184654      -277.1385
  21   1.0000     -10.178465      -276.9701
  22   1.0000     -10.177676      -276.9486
  23   1.0000      -0.881064       -23.9750
  24   1.0000      -0.865809       -23.5599
  25   1.0000      -0.825088       -22.4518
  26   1.0000      -0.803219       -21.8567
  27   1.0000      -0.799708       -21.7612
  28   1.0000      -0.781501       -21.2657
  29   1.0000      -0.772290       -21.0151
  30   1.0000      -0.753398       -20.5010
  31   1.0000      -0.740924       -20.1616
  32   1.0000      -0.728376       -19.8201
  33   1.0000      -0.706054       -19.2127
  34   1.0000      -0.677593       -18.4382
  35   1.0000      -0.657769       -17.8988
  36   1.0000      -0.630701       -17.1622
  37   1.0000      -0.618761       -16.8373
  38   1.0000      -0.611121       -16.6294
  39   1.0000      -0.599527       -16.3140
  40   1.0000      -0.583323       -15.8730
  41   1.0000      -0.568439       -15.4680
  42   1.0000      -0.550006       -14.9664
  43   1.0000      -0.534611       -14.5475
  44   1.0000      -0.513445       -13.9715
  45   1.0000      -0.483409       -13.1542
  46   1.0000      -0.482137       -13.1196
  47   1.0000      -0.476500       -12.9662
  48   1.0000      -0.473594       -12.8871
  49   1.0000      -0.459929       -12.5153
  50   1.0000      -0.440620       -11.9899
  51   1.0000      -0.438008       -11.9188
  52   1.0000      -0.429660       -11.6916
  53   1.0000      -0.429354       -11.6833
  54   1.0000      -0.427133       -11.6229
  55   1.0000      -0.426360       -11.6019
  56   1.0000      -0.421406       -11.4671
  57   1.0000      -0.414987       -11.2924
  58   1.0000      -0.409702       -11.1486
  59   1.0000      -0.389051       -10.5866
  60   1.0000      -0.381452       -10.3798
  61   1.0000      -0.376339       -10.2407
  62   1.0000      -0.371410       -10.1066
  63   1.0000      -0.367094        -9.9891
  64   1.0000      -0.362767        -9.8714
  65   1.0000      -0.362558        -9.8657
  66   1.0000      -0.352575        -9.5941
  67   1.0000      -0.347444        -9.4544
  68   1.0000      -0.337803        -9.1921
  69   1.0000      -0.334223        -9.0947
  70   1.0000      -0.333962        -9.0876
  71   1.0000      -0.330044        -8.9810
  72   1.0000      -0.326359        -8.8807
  73   1.0000      -0.325538        -8.8583
  74   1.0000      -0.324763        -8.8373
  75   1.0000      -0.294028        -8.0009
  76   1.0000      -0.289599        -7.8804
  77   1.0000      -0.271363        -7.3842
  78   1.0000      -0.261934        -7.1276
  79   1.0000      -0.260014        -7.0754
  80   1.0000      -0.237565        -6.4645
  81   1.0000      -0.174207        -4.7404
  82   0.0000      -0.103543        -2.8175
  83   0.0000      -0.040832        -1.1111
  84   0.0000      -0.013128        -0.3572
  85   0.0000      -0.008957        -0.2437
  86   0.0000       0.015147         0.4122

                 SPIN DOWN ORBITALS
  NO   OCC          E(Eh)            E(eV)
   0   1.0000     -10.236954      -278.5617
   1   1.0000     -10.219188      -278.0782
   2   1.0000     -10.213506      -277.9236
   3   1.0000     -10.212179      -277.8875
   4   1.0000     -10.209630      -277.8182
   5   1.0000     -10.204019      -277.6655
   6   1.0000     -10.201679      -277.6018
   7   1.0000     -10.199726      -277.5486
   8   1.0000     -10.198897      -277.5261
   9   1.0000     -10.198774      -277.5228
  10   1.0000     -10.197736      -277.4945
  11   1.0000     -10.197525      -277.4888
  12   1.0000     -10.197013      -277.4748
  13   1.0000     -10.196533      -277.4618
  14   1.0000     -10.193922      -277.3907
  15   1.0000     -10.191440      -277.3232
  16   1.0000     -10.191238      -277.3177
  17   1.0000     -10.187263      -277.2095
  18   1.0000     -10.185414      -277.1592
  19   1.0000     -10.185311      -277.1564
  20   1.0000     -10.184655      -277.1386
  21   1.0000     -10.178467      -276.9702
  22   1.0000     -10.177675      -276.9486
  23   1.0000      -0.877429       -23.8760
  24   1.0000      -0.864895       -23.5350
  25   1.0000      -0.822794       -22.3894
  26   1.0000      -0.799836       -21.7647
  27   1.0000      -0.799345       -21.7513
  28   1.0000      -0.778904       -21.1951
  29   1.0000      -0.770564       -20.9681
  30   1.0000      -0.752675       -20.4813
  31   1.0000      -0.739689       -20.1280
  32   1.0000      -0.726966       -19.7817
  33   1.0000      -0.704721       -19.1764
  34   1.0000      -0.668063       -18.1789
  35   1.0000      -0.657260       -17.8849
  36   1.0000      -0.629559       -17.1312
  37   1.0000      -0.617228       -16.7956
  38   1.0000      -0.610656       -16.6168
  39   1.0000      -0.598170       -16.2770
  40   1.0000      -0.583131       -15.8678
  41   1.0000      -0.567799       -15.4506
  42   1.0000      -0.546648       -14.8750
  43   1.0000      -0.532112       -14.4795
  44   1.0000      -0.511378       -13.9153
  45   1.0000      -0.482215       -13.1217
  46   1.0000      -0.480924       -13.0866
  47   1.0000      -0.475581       -12.9412
  48   1.0000      -0.473685       -12.8896
  49   1.0000      -0.459516       -12.5041
  50   1.0000      -0.439734       -11.9658
  51   1.0000      -0.437505       -11.9051
  52   1.0000      -0.429017       -11.6741
  53   1.0000      -0.426875       -11.6159
  54   1.0000      -0.426633       -11.6093
  55   1.0000      -0.426158       -11.5963
  56   1.0000      -0.420916       -11.4537
  57   1.0000      -0.414718       -11.2850
  58   1.0000      -0.407945       -11.1007
  59   1.0000      -0.384540       -10.4639
  60   1.0000      -0.377029       -10.2595
  61   1.0000      -0.375639       -10.2217
  62   1.0000      -0.370711       -10.0876
  63   1.0000      -0.366443        -9.9714
  64   1.0000      -0.361835        -9.8460
  65   1.0000      -0.361194        -9.8286
  66   1.0000      -0.352297        -9.5865
  67   1.0000      -0.344907        -9.3854
  68   1.0000      -0.337716        -9.1897
  69   1.0000      -0.333551        -9.0764
  70   1.0000      -0.329884        -8.9766
  71   1.0000      -0.328806        -8.9473
  72   1.0000      -0.325909        -8.8684
  73   1.0000      -0.325241        -8.8503
  74   1.0000      -0.319861        -8.7039
  75   1.0000      -0.281161        -7.6508
  76   1.0000      -0.279384        -7.6024
  77   1.0000      -0.270396        -7.3578
  78   1.0000      -0.259900        -7.0722
  79   1.0000      -0.251098        -6.8327
  80   1.0000      -0.226334        -6.1589
  81   0.0000      -0.099754        -2.7144
  82   0.0000      -0.094053        -2.5593
  83   0.0000      -0.031214        -0.8494
  84   0.0000      -0.011348        -0.3088
  85   0.0000      -0.001871        -0.0509

MULLIKEN ATOMIC CHARGES AND SPIN POPULATIONS
--------------------------------------------
   0 C :   -0.117937    0.506587
   1 C :    0.257797   -0.117140
   2 C :    0.046277   -0.157916
   3 C :   -0.049829    0.245731
   4 C :    0.008228   -0.142147
   5 C :   -0.181305    0.310395
   6 C :   -0.062863   -0.137456
   7 C :    0.000964    0.239094
   8 H :   -0.049339    0.004974
   9 H :   -0.041774   -0.010656
  10 C :    0.021368   -0.020486
  11 H :    0.035905    0.010766
  12 H :    0.035876    0.010761
  13 C :   -0.037246    0.000981
  14 H :    0.017988   -0.000129
  15 H :    0.017933   -0.000128
  16 C :   -0.026280    0.000015
  17 H :    0.008217    0.000002
  18 H :    0.008210    0.000002
  19 C :    0.002366   -0.000078
  20 H :    0.017382    0.000023
  21 H :    0.017361    0.000023
  22 C :    0.039402    0.010001
  23 H :    0.033498   -0.004497
  24 H :    0.033502   -0.004493
  25 C :   -0.035757   -0.000585
  26 H :    0.017162    0.000088
  27 H :    0.017185    0.000088
  28 C :   -0.025963   -0.000083
  29 H :    0.005873    0.000048
  30 H :    0.005873    0.000048
  31 C :    0.003936    0.000034
  32 H :    0.017909   -0.000003
  33 H :    0.017922   -0.000003
  34 C :    0.152907    0.197975
  35 H :    0.014451   -0.000004
  36 H :    0.013211   -0.000004
  37 C :   -0.253386   -0.045568
  38 C :    0.030779    0.053052
  39 C :    0.041255   -0.027968
  40 C :    0.033206    0.058682
  41 C :    0.041024   -0.027948
  42 C :    0.028078    0.053048
  43 H :   -0.026795   -0.002687
  44 H :   -0.026955    0.001107
  45 H :   -0.040739   -0.002328
  46 H :   -0.039934   -0.002327
  47 H :   -0.026944    0.001109
Sum of atomic charges         :   -0.0000000

LOEWDIN ATOMIC CHARGES AND SPIN POPULATIONS
-------------------------------------------
   0 C :    0.044746    0.458926
   1 C :   -0.022625   -0.052701
   2 C :   -0.130094   -0.072451
   3 C :   -0.010033    0.181410
   4 C :   -0.005654   -0.077920
   5 C :   -0.050564    0.226722
   6 C :   -0.006235   -0.076058
   7 C :   -0.009650    0.184079
   8 H :    0.032262   -0.000680
   9 H :    0.026844    0.000338
  10 C :   -0.039822   -0.000480
  11 H :    0.038995    0.007800
  12 H :    0.038980    0.007791
  13 C :   -0.042467    0.000125
  14 H :    0.025327   -0.000092
  15 H :    0.025331   -0.000092
  16 C :   -0.046607   -0.000030
  17 H :    0.025013    0.000069
  18 H :    0.025010    0.000070
  19 C :   -0.067064   -0.000042
  20 H :    0.025377    0.000014
  21 H :    0.025372    0.000014
  22 C :   -0.032564   -0.000740
  23 H :    0.039567   -0.003491
  24 H :    0.039565   -0.003487
  25 C :   -0.043603    0.000130
  26 H :    0.024721    0.000155
  27 H :    0.024717    0.000155
  28 C :   -0.046918   -0.000017
  29 H :    0.024070    0.000002
  30 H :    0.024068    0.000002
  31 C :   -0.067150    0.000012
  32 H :    0.025602   -0.000004
  33 H :    0.025604   -0.000004
  34 C :   -0.018449    0.146146
  35 H :    0.028352   -0.000006
  36 H :    0.027819   -0.000002
  37 C :   -0.054319   -0.020454
  38 C :   -0.001145    0.041104
  39 C :   -0.023468   -0.016469
  40 C :   -0.020722    0.045428
  41 C :   -0.023581   -0.016456
  42 C :   -0.002095    0.041083
  43 H :    0.028408    0.000166
  44 H :    0.029656   -0.000066
  45 H :    0.029881    0.000031
  46 H :    0.029838    0.000036
  47 H :    0.029706   -0.000066

  Mayer bond orders larger than 0.100000
B(  0-C ,  2-C ) :   1.6818 B(  1-C ,  5-C ) :   0.9447 B(  1-C , 34-C ) :   1.7163
B(  1-C , 37-C ) :  -0.1738 B(  2-C ,  3-C ) :   1.1875 B(  2-C ,  7-C ) :   1.1303
B(  3-C ,  4-C ) :   1.5209 B(  3-C , 10-C ) :   1.0767 B(  4-C ,  5-C ) :   1.3102
B(  4-C ,  8-H ) :   0.9222 B(  5-C ,  6-C ) :   1.3139 B(  6-C ,  7-C ) :   1.5453
B(  6-C , 22-C ) :   1.0907 B(  7-C ,  9-H ) :   0.9161 B( 10-C , 11-H ) :   0.9020
B( 10-C , 12-H ) :   0.9019 B( 10-C , 13-C ) :   1.1042 B( 13-C , 14-H ) :   0.9307
B( 13-C , 15-H ) :   0.9307 B( 13-C , 16-C ) :   1.0748 B( 16-C , 17-H ) :   0.9415
B( 16-C , 18-H ) :   0.9415 B( 16-C , 19-C ) :   1.1060 B( 19-C , 20-H ) :   0.9663
B( 19-C , 21-H ) :   0.9663 B( 19-C , 35-H ) :   0.9619 B( 22-C , 23-H ) :   0.8979
B( 22-C , 24-H ) :   0.8979 B( 22-C , 25-C ) :   1.1036 B( 25-C , 26-H ) :   0.9290
B( 25-C , 27-H ) :   0.9289 B( 25-C , 28-C ) :   1.0753 B( 28-C , 29-H ) :   0.9412
B( 28-C , 30-H ) :   0.9412 B( 28-C , 31-C ) :   1.1062 B( 31-C , 32-H ) :   0.9662
B( 31-C , 33-H ) :   0.9662 B( 31-C , 36-H ) :   0.9616 B( 34-C , 37-C ) :   0.9434
B( 37-C , 38-C ) :   1.4324 B( 37-C , 42-C ) :   1.4299 B( 38-C , 39-C ) :   1.4740
B( 38-C , 45-H ) :   0.9404 B( 39-C , 40-C ) :   1.4410 B( 39-C , 47-H ) :   0.9380
B( 40-C , 41-C ) :   1.4407 B( 40-C , 43-H ) :   0.9434 B( 41-C , 42-C ) :   1.4739
B( 41-C , 44-H ) :   0.9380 B( 42-C , 46-H ) :   0.9408

FINAL SINGLE POINT ENERGY      -890.752880805287

DIPOLE MOMENT
-------------
                                X             Y             Z
Electronic contribution:     11.94010      -0.25464       0.00030
Nuclear contribution   :    -10.82369       0.14307      -0.00029
                        -----------------------------------------
Total Dipole Moment    :      1.11641      -0.11157       0.00001
                        -----------------------------------------
Magnitude (a.u.)       :      1.12197
Magnitude (Debye)      :      2.85182

Rotational constants in cm-1:     0.006740     0.004685     0.002775
Rotational constants in MHz :   202.049713   140.466397    83.204171

                             ****ORCA TERMINATED NORMALLY****
TOTAL RUN TIME: 0 days 0 hours 17 minutes 39 seconds 798 msec
