                         Program Version 5.0.4 -  RELEASE  -
|  1> ! B3LYP EPR-II OPT
|  2> %pal nprocs 16 end
|  3> *XYZFile 0 2 model.xyz
|  4>
|  5>                          ****END OF INPUT****
 Total Charge           Charge          ....    0
 Multiplicity           Mult            ....    2
 Number of Electrons    NEL             ....  163
FINAL SINGLE POINT ENERGY      -890.827629968116
FINAL SINGLE POINT ENERGY      -890.828714119581
FINAL SINGLE POINT ENERGY      -890.828767010196
FINAL SINGLE POINT ENERGY      -890.828779889915
                    ***********************HURRAY********************

CARTESIAN COORDINATES (ANGSTROEM)
---------------------------------
  C     -2.789251    0.057937   -0.011978
  C      2.818441    0.003573   -0.009293
  C     -1.424568   -0.004674   -0.011593
  C     -0.696249   -1.267874   -0.014585
  C      0.683232   -1.201355   -0.013534
  C      1.402084    0.033209   -0.009794
  C      0.686752    1.281751   -0.006764
  C     -0.695820    1.252926   -0.007819
  H      1.263197   -2.117815   -0.015643
  H     -1.265520    2.174377   -0.005747
  C     -1.496655   -2.559416   -0.018969
  H     -2.160989   -2.548652   -0.895397
  H     -2.164651   -2.552314    0.854714
  C     -0.685989   -3.865099   -0.020056
  H     -0.029348   -3.893761   -0.899547
  H     -0.033327   -3.897631    0.862264
  C     -1.584994   -5.114929   -0.024914
  H     -2.245027   -5.089694    0.852126
  H     -2.240762   -5.085892   -0.905031
  C     -0.783503   -6.428225   -0.025844
  H     -0.142715   -6.499503    0.860230
  H     -0.137886   -6.495264   -0.908737
  C      1.472248    2.584906   -0.002662
  H      2.138519    2.575598    0.870334
  H      2.140291    2.580023   -0.874333
  C      0.652914    3.884569   -0.000207
  H     -0.001101    3.916337   -0.881803
  H     -0.003334    3.911681    0.879880
  C      1.544979    5.139532    0.004282
  H      2.201657    5.113465    0.884006
  H      2.204178    5.117973   -0.873676
  C      0.737225    6.448979    0.006509
  H      0.091955    6.512343    0.889887
  H      0.095047    6.517287   -0.878754
  C      4.047570   -0.037828   -0.010119
  H     -1.446882   -7.299112   -0.029733
  H      1.395944    7.323513    0.010100
  C      5.474806   -0.092407   -0.009888
  C      6.146864   -1.341117   -0.011719
  C      7.544939   -1.391233   -0.011504
  C      8.299041   -0.204703   -0.009492
  C      7.641470    1.037985   -0.007687
  C      6.243742    1.098933   -0.007892
  H      9.384771   -0.247995   -0.009343
  H      8.219407    1.958416   -0.006137
  H      5.562231   -2.256245   -0.013273
  H      5.734127    2.057830   -0.006528
  H      8.048212   -2.354540   -0.012911

 Multiplicity           Mult            ....    2
 Number of Electrons    NEL             ....  163
 Basis Dimension        Dim             ....  566

ORBITAL ENERGIES
----------------
                 SPIN UP ORBITALS
  NO   OCC          E(Eh)            E(eV)
   0   1.0000     -10.255049      -279.0541
   1   1.0000     -10.231099      -278.4024
   2   1.0000     -10.228966      -278.3443
   3   1.0000     -10.226275      -278.2711
   4   1.0000     -10.217933      -278.0441
   5   1.0000     -10.214996      -277.9642
   6   1.0000     -10.213491      -277.9232
   7   1.0000     -10.208626      -277.7908
   8   1.0000     -10.208537      -277.7884
   9   1.0000     -10.208485      -277.7870
  10   1.0000     -10.208069      -277.7757
  11   1.0000     -10.206816      -277.7416
  12   1.0000     -10.206678      -277.7378
  13   1.0000     -10.205139      -277.6960
  14   1.0000     -10.204846      -277.6880
  15   1.0000     -10.196542      -277.4620
  16   1.0000     -10.191741      -277.3314
  17   1.0000     -10.186941      -277.2008
  18   1.0000     -10.184929      -277.1460
  19   1.0000     -10.184804      -277.1426
  20   1.0000     -10.184113      -277.1238
  21   1.0000     -10.173896      -276.8458
  22   1.0000     -10.173101      -276.8242
  23   1.0000      -0.879023       -23.9194
  24   1.0000      -0.863861       -23.5069
  25   1.0000      -0.822850       -22.3909
  26   1.0000      -0.801968       -21.8227
  27   1.0000      -0.796728       -21.6801
  28   1.0000      -0.780650       -21.2426
  29   1.0000      -0.770108       -20.9557
  30   1.0000      -0.753381       -20.5005
  31   1.0000      -0.739534       -20.1238
  32   1.0000      -0.727718       -19.8022
  33   1.0000      -0.704711       -19.1762
  34   1.0000      -0.677189       -18.4273
  35   1.0000      -0.657156       -17.8821
  36   1.0000      -0.631072       -17.1723
  37   1.0000      -0.619318       -16.8525
  38   1.0000      -0.612448       -16.6656
  39   1.0000      -0.600178       -16.3317
  40   1.0000      -0.584286       -15.8992
  41   1.0000      -0.569614       -15.5000
  42   1.0000      -0.550577       -14.9820
  43   1.0000      -0.535118       -14.5613
  44   1.0000      -0.513435       -13.9713
  45   1.0000      -0.485793       -13.2191
  46   1.0000      -0.481161       -13.0930
  47   1.0000      -0.477116       -12.9830
  48   1.0000      -0.474275       -12.9057
  49   1.0000      -0.458267       -12.4701
  50   1.0000      -0.442572       -12.0430
  51   1.0000      -0.439809       -11.9678
  52   1.0000      -0.430041       -11.7020
  53   1.0000      -0.428594       -11.6626
  54   1.0000      -0.427435       -11.6311
  55   1.0000      -0.425525       -11.5791
  56   1.0000      -0.422840       -11.5061
  57   1.0000      -0.414537       -11.2801
  58   1.0000      -0.409080       -11.1316
  59   1.0000      -0.388665       -10.5761
  60   1.0000      -0.380726       -10.3601
  61   1.0000      -0.375459       -10.2168
  62   1.0000      -0.370901       -10.0927
  63   1.0000      -0.367230        -9.9928
  64   1.0000      -0.364557        -9.9201
  65   1.0000      -0.364331        -9.9139
  66   1.0000      -0.355208        -9.6657
  67   1.0000      -0.349637        -9.5141
  68   1.0000      -0.335808        -9.1378
  69   1.0000      -0.334790        -9.1101
  70   1.0000      -0.333349        -9.0709
  71   1.0000      -0.328501        -8.9390
  72   1.0000      -0.328168        -8.9299
  73   1.0000      -0.326242        -8.8775
  74   1.0000      -0.323484        -8.8024
  75   1.0000      -0.294108        -8.0031
  76   1.0000      -0.293386        -7.9835
  77   1.0000      -0.272239        -7.4080
  78   1.0000      -0.262138        -7.1331
  79   1.0000      -0.260418        -7.0863
  80   1.0000      -0.238359        -6.4861
  81   1.0000      -0.176229        -4.7954
  82   0.0000      -0.107620        -2.9285
  83   0.0000      -0.044175        -1.2021
  84   0.0000      -0.018633        -0.5070
  85   0.0000      -0.012575        -0.3422
  86   0.0000       0.010528         0.2865

                 SPIN DOWN ORBITALS
  NO   OCC          E(Eh)            E(eV)
   0   1.0000     -10.247578      -278.8508
   1   1.0000     -10.231799      -278.4214
   2   1.0000     -10.224336      -278.2183
   3   1.0000     -10.222627      -278.1718
   4   1.0000     -10.219909      -278.0979
   5   1.0000     -10.215915      -277.9892
   6   1.0000     -10.211458      -277.8679
   7   1.0000     -10.207929      -277.7719
   8   1.0000     -10.207799      -277.7683
   9   1.0000     -10.207441      -277.7586
  10   1.0000     -10.207347      -277.7560
  11   1.0000     -10.207111      -277.7496
  12   1.0000     -10.207080      -277.7488
  13   1.0000     -10.206777      -277.7405
  14   1.0000     -10.204907      -277.6896
  15   1.0000     -10.196793      -277.4688
  16   1.0000     -10.191645      -277.3288
  17   1.0000     -10.186932      -277.2005
  18   1.0000     -10.184926      -277.1459
  19   1.0000     -10.184807      -277.1427
  20   1.0000     -10.184114      -277.1238
  21   1.0000     -10.173897      -276.8458
  22   1.0000     -10.173100      -276.8241
  23   1.0000      -0.875403       -23.8209
  24   1.0000      -0.862952       -23.4821
  25   1.0000      -0.820434       -22.3251
  26   1.0000      -0.798655       -21.7325
  27   1.0000      -0.796420       -21.6717
  28   1.0000      -0.777974       -21.1697
  29   1.0000      -0.768546       -20.9132
  30   1.0000      -0.752665       -20.4811
  31   1.0000      -0.738205       -20.0876
  32   1.0000      -0.726464       -19.7681
  33   1.0000      -0.703369       -19.1396
  34   1.0000      -0.667688       -18.1687
  35   1.0000      -0.656651       -17.8684
  36   1.0000      -0.629940       -17.1415
  37   1.0000      -0.617787       -16.8108
  38   1.0000      -0.611992       -16.6532
  39   1.0000      -0.598801       -16.2942
  40   1.0000      -0.584102       -15.8942
  41   1.0000      -0.568969       -15.4824
  42   1.0000      -0.547363       -14.8945
  43   1.0000      -0.532388       -14.4870
  44   1.0000      -0.511369       -13.9150
  45   1.0000      -0.484537       -13.1849
  46   1.0000      -0.480007       -13.0616
  47   1.0000      -0.476218       -12.9585
  48   1.0000      -0.474380       -12.9085
  49   1.0000      -0.457850       -12.4587
  50   1.0000      -0.441642       -12.0177
  51   1.0000      -0.439209       -11.9515
  52   1.0000      -0.428390       -11.6571
  53   1.0000      -0.427538       -11.6339
  54   1.0000      -0.426836       -11.6148
  55   1.0000      -0.425214       -11.5706
  56   1.0000      -0.422417       -11.4946
  57   1.0000      -0.414304       -11.2738
  58   1.0000      -0.407205       -11.0806
  59   1.0000      -0.383746       -10.4423
  60   1.0000      -0.376698       -10.2505
  61   1.0000      -0.374781       -10.1983
  62   1.0000      -0.370138       -10.0720
  63   1.0000      -0.366674        -9.9777
  64   1.0000      -0.363506        -9.8915
  65   1.0000      -0.363195        -9.8830
  66   1.0000      -0.354924        -9.6580
  67   1.0000      -0.346832        -9.4378
  68   1.0000      -0.335698        -9.1348
  69   1.0000      -0.332966        -9.0605
  70   1.0000      -0.330326        -8.9886
  71   1.0000      -0.328300        -8.9335
  72   1.0000      -0.327765        -8.9189
  73   1.0000      -0.323218        -8.7952
  74   1.0000      -0.320164        -8.7121
  75   1.0000      -0.282959        -7.6997
  76   1.0000      -0.281244        -7.6531
  77   1.0000      -0.271344        -7.3837
  78   1.0000      -0.260120        -7.0782
  79   1.0000      -0.251480        -6.8431
  80   1.0000      -0.227108        -6.1799
  81   0.0000      -0.101698        -2.7673
  82   0.0000      -0.098130        -2.6703
  83   0.0000      -0.034913        -0.9500
  84   0.0000      -0.016932        -0.4608
  85   0.0000      -0.005574        -0.1517

MULLIKEN ATOMIC CHARGES AND SPIN POPULATIONS
--------------------------------------------
   0 C :   -0.402770    0.494735
   1 C :   -0.361911   -0.109468
   2 C :    0.365851   -0.119714
   3 C :    0.305815    0.231510
   4 C :   -0.413117   -0.132505
   5 C :    0.512820    0.293336
   6 C :    0.247265   -0.125238
   7 C :   -0.385431    0.225910
   8 H :    0.134983    0.005964
   9 H :    0.133494   -0.011851
  10 C :   -0.366496   -0.019810
  11 H :    0.155103    0.009493
  12 H :    0.154996    0.009482
  13 C :   -0.274333    0.001098
  14 H :    0.143797   -0.000186
  15 H :    0.143957   -0.000187
  16 C :   -0.260760    0.000038
  17 H :    0.145753    0.000027
  18 H :    0.145745    0.000027
  19 C :   -0.510088   -0.000070
  20 H :    0.159664    0.000024
  21 H :    0.159633    0.000023
  22 C :   -0.349426    0.008619
  23 H :    0.154334   -0.004368
  24 H :    0.154216   -0.004363
  25 C :   -0.270280   -0.000673
  26 H :    0.142028   -0.000044
  27 H :    0.141969   -0.000045
  28 C :   -0.263450   -0.000049
  29 H :    0.144442    0.000061
  30 H :    0.144418    0.000061
  31 C :   -0.509395    0.000032
  32 H :    0.160180   -0.000006
  33 H :    0.160196   -0.000006
  34 C :   -0.309440    0.185906
  35 H :    0.146170   -0.000004
  36 H :    0.144504   -0.000003
  37 C :    0.590346   -0.038341
  38 C :   -0.279115    0.051251
  39 C :   -0.097934   -0.027139
  40 C :   -0.122644    0.058342
  41 C :   -0.100621   -0.027126
  42 C :   -0.273611    0.051354
  43 H :    0.107726   -0.003283
  44 H :    0.106424    0.001326
  45 H :    0.119430   -0.002730
  46 H :    0.119073   -0.002731
  47 H :    0.106492    0.001322
Sum of atomic charges         :   -0.0000000

LOEWDIN ATOMIC CHARGES AND SPIN POPULATIONS
-------------------------------------------
   0 C :    0.045559    0.464546
   1 C :   -0.034325   -0.052275
   2 C :   -0.171278   -0.073967
   3 C :   -0.044631    0.182578
   4 C :   -0.006800   -0.079024
   5 C :   -0.065475    0.225748
   6 C :   -0.040623   -0.077271
   7 C :   -0.011327    0.184796
   8 H :    0.062998   -0.000809
   9 H :    0.059740    0.001004
  10 C :   -0.047724   -0.001209
  11 H :    0.059406    0.007023
  12 H :    0.059413    0.007004
  13 C :   -0.077712    0.000165
  14 H :    0.045173   -0.000095
  15 H :    0.045214   -0.000096
  16 C :   -0.088508   -0.000050
  17 H :    0.041520    0.000056
  18 H :    0.041517    0.000056
  19 C :   -0.077657   -0.000038
  20 H :    0.034076    0.000011
  21 H :    0.034073    0.000011
  22 C :   -0.041452   -0.000491
  23 H :    0.059649   -0.003501
  24 H :    0.059645   -0.003496
  25 C :   -0.079146    0.000071
  26 H :    0.044819    0.000130
  27 H :    0.044801    0.000129
  28 C :   -0.089866   -0.000007
  29 H :    0.040911    0.000012
  30 H :    0.040909    0.000012
  31 C :   -0.077879    0.000009
  32 H :    0.034332   -0.000005
  33 H :    0.034331   -0.000005
  34 C :   -0.030268    0.144778
  35 H :    0.032229   -0.000005
  36 H :    0.031845   -0.000002
  37 C :   -0.072799   -0.020680
  38 C :   -0.015042    0.041139
  39 C :   -0.042100   -0.016636
  40 C :   -0.041662    0.045544
  41 C :   -0.042379   -0.016634
  42 C :   -0.015433    0.041126
  43 H :    0.049275    0.000312
  44 H :    0.050504   -0.000119
  45 H :    0.055923    0.000137
  46 H :    0.055640    0.000139
  47 H :    0.050581   -0.000118

  Mayer bond orders larger than 0.100000
B(  0-C ,  2-C ) :   1.2112 B(  0-C ,  7-C ) :   0.1237 B(  1-C ,  5-C ) :   0.8633
B(  1-C ,  6-C ) :   0.1124 B(  1-C , 34-C ) :   2.4491 B(  2-C ,  3-C ) :   1.2174
B(  2-C ,  4-C ) :   0.1315 B(  2-C ,  6-C ) :   0.1075 B(  2-C ,  7-C ) :   1.1559
B(  3-C ,  4-C ) :   1.5371 B(  3-C ,  5-C ) :   0.1258 B(  3-C , 10-C ) :   0.9412
B(  4-C ,  5-C ) :   1.3643 B(  4-C ,  8-H ) :   0.9716 B(  5-C ,  6-C ) :   1.2909
B(  5-C ,  7-C ) :   0.1385 B(  5-C , 34-C ) :   0.1245 B(  6-C ,  7-C ) :   1.5585
B(  6-C , 22-C ) :   0.9705 B(  7-C ,  9-H ) :   0.9675 B( 10-C , 11-H ) :   0.9596
B( 10-C , 12-H ) :   0.9597 B( 10-C , 13-C ) :   1.0244 B( 13-C , 14-H ) :   0.9631
B( 13-C , 15-H ) :   0.9632 B( 13-C , 16-C ) :   0.9858 B( 16-C , 17-H ) :   0.9711
B( 16-C , 18-H ) :   0.9711 B( 16-C , 19-C ) :   0.9560 B( 19-C , 20-H ) :   0.9725
B( 19-C , 21-H ) :   0.9725 B( 19-C , 35-H ) :   0.9676 B( 22-C , 23-H ) :   0.9544
B( 22-C , 24-H ) :   0.9544 B( 22-C , 25-C ) :   1.0228 B( 25-C , 26-H ) :   0.9611
B( 25-C , 27-H ) :   0.9611 B( 25-C , 28-C ) :   0.9879 B( 28-C , 29-H ) :   0.9717
B( 28-C , 30-H ) :   0.9717 B( 28-C , 31-C ) :   0.9555 B( 31-C , 32-H ) :   0.9728
B( 31-C , 33-H ) :   0.9728 B( 31-C , 36-H ) :   0.9672 B( 34-C , 37-C ) :   1.0198
B( 37-C , 38-C ) :   1.3789 B( 37-C , 42-C ) :   1.3754 B( 38-C , 39-C ) :   1.4812
B( 38-C , 45-H ) :   0.9820 B( 39-C , 40-C ) :   1.4492 B( 39-C , 47-H ) :   0.9756
B( 40-C , 41-C ) :   1.4519 B( 40-C , 42-C ) :   0.1004 B( 40-C , 43-H ) :   0.9653
B( 41-C , 42-C ) :   1.4806 B( 41-C , 44-H ) :   0.9765 B( 42-C , 46-H ) :   0.9797

FINAL SINGLE POINT ENERGY      -890.828782554082

DIPOLE MOMENT
-------------
                                X             Y             Z
Electronic contribution:     12.01781      -0.26368      -0.00254
Nuclear contribution   :    -10.80287       0.14144       0.00254
                        -----------------------------------------
Total Dipole Moment    :      1.21494      -0.12224      -0.00001
                        -----------------------------------------
Magnitude (a.u.)       :      1.22107
Magnitude (Debye)      :      3.10372

Rotational constants in cm-1:     0.006709     0.004670     0.002765
Rotational constants in MHz :   201.131378   140.008553    82.884845

                             ****ORCA TERMINATED NORMALLY****
TOTAL RUN TIME: 0 days 0 hours 11 minutes 39 seconds 498 msec
