                         Program Version 5.0.4 -  RELEASE  -
|  1> ! B3LYP cc-pVDZ OPT
|  2> %pal nprocs 16 end
|  3> *XYZFile 0 2 model.xyz
|  4>
|  5>                          ****END OF INPUT****
 Total Charge           Charge          ....    0
 Multiplicity           Mult            ....    2
 Number of Electrons    NEL             ....  163
FINAL SINGLE POINT ENERGY      -890.752880805972
                    ***********************HURRAY********************

CARTESIAN COORDINATES (ANGSTROEM)
---------------------------------
  C     -2.775454    0.046275   -0.011726
  C      2.820068    0.009333   -0.009158
  C     -1.416146   -0.010335   -0.011342
  C     -0.684837   -1.267641   -0.014396
  C      0.690339   -1.196565   -0.013408
  C      1.406827    0.035857   -0.009714
  C      0.687718    1.279494   -0.006700
  C     -0.690447    1.243934   -0.007612
  H      1.276950   -2.115896   -0.015553
  H     -1.268546    2.167020   -0.005471
  C     -1.481022   -2.556034   -0.018581
  H     -2.154921   -2.540923   -0.897144
  H     -2.157653   -2.544895    0.857940
  C     -0.681530   -3.861383   -0.020319
  H     -0.018124   -3.891105   -0.904067
  H     -0.020937   -3.895116    0.865395
  C     -1.579795   -5.104335   -0.024627
  H     -2.246941   -5.074228    0.856665
  H     -2.243926   -5.070281   -0.908053
  C     -0.790484   -6.415794   -0.026231
  H     -0.143479   -6.495089    0.864444
  H     -0.139948   -6.490764   -0.914705
  C      1.466081    2.581276   -0.002730
  H      2.141262    2.571205    0.872678
  H      2.142868    2.575547   -0.876932
  C      0.653453    3.878247   -0.000274
  H     -0.008242    3.909004   -0.885502
  H     -0.010013    3.904631    0.883765
  C      1.541182    5.128985    0.003735
  H      2.206071    5.100030    0.886928
  H      2.208047    5.104274   -0.878097
  C      0.742021    6.434527    0.005993
  H      0.091320    6.504280    0.894721
  H      0.093798    6.508891   -0.884172
  C      4.045944   -0.034404   -0.010004
  H     -1.461297   -7.290069   -0.029689
  H      1.405900    7.314173    0.009201
  C      5.469023   -0.089649   -0.009731
  C      6.140681   -1.333721   -0.012315
  C      7.533655   -1.383691   -0.012033
  C      8.284442   -0.202048   -0.009208
  C      7.630240    1.035744   -0.006660
  C      6.237715    1.096870   -0.006921
  H      9.376025   -0.245728   -0.009002
  H      8.211088    1.961246   -0.004455
  H      5.553377   -2.253884   -0.014518
  H      5.725928    2.061099   -0.004950
  H      8.038991   -2.352498   -0.014040

 Multiplicity           Mult            ....    2
 Number of Electrons    NEL             ....  163
 Basis Dimension        Dim             ....  447

ORBITAL ENERGIES
----------------
                 SPIN UP ORBITALS
  NO   OCC          E(Eh)            E(eV)
   0   1.0000     -10.244420      -278.7648
   1   1.0000     -10.218488      -278.0592
   2   1.0000     -10.218160      -278.0503
   3   1.0000     -10.215832      -277.9869
   4   1.0000     -10.207881      -277.7706
   5   1.0000     -10.207320      -277.7553
   6   1.0000     -10.199666      -277.5470
   7   1.0000     -10.199541      -277.5436
   8   1.0000     -10.199348      -277.5384
   9   1.0000     -10.198146      -277.5057
  10   1.0000     -10.197794      -277.4961
  11   1.0000     -10.197171      -277.4791
  12   1.0000     -10.197042      -277.4756
  13   1.0000     -10.196273      -277.4547
  14   1.0000     -10.195010      -277.4203
  15   1.0000     -10.191497      -277.3247
  16   1.0000     -10.191340      -277.3205
  17   1.0000     -10.187276      -277.2099
  18   1.0000     -10.185413      -277.1592
  19   1.0000     -10.185319      -277.1566
  20   1.0000     -10.184657      -277.1386
  21   1.0000     -10.178467      -276.9702
  22   1.0000     -10.177678      -276.9487
  23   1.0000      -0.881051       -23.9746
  24   1.0000      -0.865805       -23.5598
  25   1.0000      -0.825086       -22.4517
  26   1.0000      -0.803210       -21.8564
  27   1.0000      -0.799710       -21.7612
  28   1.0000      -0.781493       -21.2655
  29   1.0000      -0.772294       -21.0152
  30   1.0000      -0.753395       -20.5009
  31   1.0000      -0.740922       -20.1615
  32   1.0000      -0.728370       -19.8200
  33   1.0000      -0.706056       -19.2128
  34   1.0000      -0.677578       -18.4378
  35   1.0000      -0.657771       -17.8989
  36   1.0000      -0.630702       -17.1623
  37   1.0000      -0.618756       -16.8372
  38   1.0000      -0.611118       -16.6294
  39   1.0000      -0.599527       -16.3140
  40   1.0000      -0.583327       -15.8731
  41   1.0000      -0.568442       -15.4681
  42   1.0000      -0.549985       -14.9659
  43   1.0000      -0.534602       -14.5473
  44   1.0000      -0.513443       -13.9715
  45   1.0000      -0.483402       -13.1540
  46   1.0000      -0.482134       -13.1195
  47   1.0000      -0.476501       -12.9662
  48   1.0000      -0.473597       -12.8872
  49   1.0000      -0.459925       -12.5152
  50   1.0000      -0.440636       -11.9903
  51   1.0000      -0.438009       -11.9188
  52   1.0000      -0.429668       -11.6919
  53   1.0000      -0.429351       -11.6832
  54   1.0000      -0.427132       -11.6229
  55   1.0000      -0.426359       -11.6018
  56   1.0000      -0.421407       -11.4671
  57   1.0000      -0.414993       -11.2925
  58   1.0000      -0.409689       -11.1482
  59   1.0000      -0.389047       -10.5865
  60   1.0000      -0.381447       -10.3797
  61   1.0000      -0.376350       -10.2410
  62   1.0000      -0.371413       -10.1067
  63   1.0000      -0.367097        -9.9892
  64   1.0000      -0.362768        -9.8714
  65   1.0000      -0.362552        -9.8655
  66   1.0000      -0.352575        -9.5941
  67   1.0000      -0.347443        -9.4544
  68   1.0000      -0.337806        -9.1922
  69   1.0000      -0.334214        -9.0944
  70   1.0000      -0.333964        -9.0876
  71   1.0000      -0.330048        -8.9811
  72   1.0000      -0.326361        -8.8807
  73   1.0000      -0.325549        -8.8586
  74   1.0000      -0.324765        -8.8373
  75   1.0000      -0.294022        -8.0007
  76   1.0000      -0.289594        -7.8802
  77   1.0000      -0.271357        -7.3840
  78   1.0000      -0.261930        -7.1275
  79   1.0000      -0.260015        -7.0754
  80   1.0000      -0.237559        -6.4643
  81   1.0000      -0.174203        -4.7403
  82   0.0000      -0.103542        -2.8175
  83   0.0000      -0.040826        -1.1109
  84   0.0000      -0.013127        -0.3572
  85   0.0000      -0.008970        -0.2441
  86   0.0000       0.015143         0.4121

                 SPIN DOWN ORBITALS
  NO   OCC          E(Eh)            E(eV)
   0   1.0000     -10.236962      -278.5619
   1   1.0000     -10.219183      -278.0781
   2   1.0000     -10.213504      -277.9236
   3   1.0000     -10.212185      -277.8877
   4   1.0000     -10.209630      -277.8182
   5   1.0000     -10.204027      -277.6657
   6   1.0000     -10.201699      -277.6024
   7   1.0000     -10.199729      -277.5487
   8   1.0000     -10.198895      -277.5260
   9   1.0000     -10.198771      -277.5227
  10   1.0000     -10.197733      -277.4944
  11   1.0000     -10.197523      -277.4887
  12   1.0000     -10.197010      -277.4747
  13   1.0000     -10.196534      -277.4618
  14   1.0000     -10.193914      -277.3905
  15   1.0000     -10.191431      -277.3229
  16   1.0000     -10.191240      -277.3177
  17   1.0000     -10.187266      -277.2096
  18   1.0000     -10.185415      -277.1592
  19   1.0000     -10.185317      -277.1566
  20   1.0000     -10.184658      -277.1386
  21   1.0000     -10.178468      -276.9702
  22   1.0000     -10.177678      -276.9487
  23   1.0000      -0.877416       -23.8757
  24   1.0000      -0.864892       -23.5349
  25   1.0000      -0.822793       -22.3893
  26   1.0000      -0.799827       -21.7644
  27   1.0000      -0.799347       -21.7513
  28   1.0000      -0.778898       -21.1949
  29   1.0000      -0.770567       -20.9682
  30   1.0000      -0.752673       -20.4813
  31   1.0000      -0.739688       -20.1279
  32   1.0000      -0.726958       -19.7815
  33   1.0000      -0.704722       -19.1765
  34   1.0000      -0.668050       -18.1786
  35   1.0000      -0.657262       -17.8850
  36   1.0000      -0.629560       -17.1312
  37   1.0000      -0.617223       -16.7955
  38   1.0000      -0.610654       -16.6167
  39   1.0000      -0.598169       -16.2770
  40   1.0000      -0.583135       -15.8679
  41   1.0000      -0.567802       -15.4507
  42   1.0000      -0.546631       -14.8746
  43   1.0000      -0.532101       -14.4792
  44   1.0000      -0.511375       -13.9152
  45   1.0000      -0.482208       -13.1215
  46   1.0000      -0.480921       -13.0865
  47   1.0000      -0.475581       -12.9412
  48   1.0000      -0.473688       -12.8897
  49   1.0000      -0.459513       -12.5040
  50   1.0000      -0.439748       -11.9662
  51   1.0000      -0.437506       -11.9052
  52   1.0000      -0.429024       -11.6743
  53   1.0000      -0.426874       -11.6158
  54   1.0000      -0.426632       -11.6092
  55   1.0000      -0.426156       -11.5963
  56   1.0000      -0.420916       -11.4537
  57   1.0000      -0.414724       -11.2852
  58   1.0000      -0.407932       -11.1004
  59   1.0000      -0.384536       -10.4638
  60   1.0000      -0.377025       -10.2594
  61   1.0000      -0.375650       -10.2219
  62   1.0000      -0.370714       -10.0876
  63   1.0000      -0.366446        -9.9715
  64   1.0000      -0.361829        -9.8459
  65   1.0000      -0.361195        -9.8286
  66   1.0000      -0.352297        -9.5865
  67   1.0000      -0.344905        -9.3853
  68   1.0000      -0.337719        -9.1898
  69   1.0000      -0.333553        -9.0764
  70   1.0000      -0.329888        -8.9767
  71   1.0000      -0.328806        -8.9473
  72   1.0000      -0.325913        -8.8685
  73   1.0000      -0.325252        -8.8506
  74   1.0000      -0.319854        -8.7037
  75   1.0000      -0.281155        -7.6506
  76   1.0000      -0.279379        -7.6023
  77   1.0000      -0.270390        -7.3577
  78   1.0000      -0.259897        -7.0722
  79   1.0000      -0.251098        -6.8327
  80   1.0000      -0.226328        -6.1587
  81   0.0000      -0.099746        -2.7142
  82   0.0000      -0.094050        -2.5592
  83   0.0000      -0.031209        -0.8492
  84   0.0000      -0.011347        -0.3088
  85   0.0000      -0.001882        -0.0512

MULLIKEN ATOMIC CHARGES AND SPIN POPULATIONS
--------------------------------------------
   0 C :   -0.117926    0.506660
   1 C :    0.257650   -0.117088
   2 C :    0.046259   -0.157961
   3 C :   -0.049815    0.245783
   4 C :    0.008286   -0.142150
   5 C :   -0.181329    0.310341
   6 C :   -0.062898   -0.137454
   7 C :    0.000956    0.239085
   8 H :   -0.049329    0.004975
   9 H :   -0.041758   -0.010652
  10 C :    0.021386   -0.020493
  11 H :    0.035903    0.010769
  12 H :    0.035874    0.010764
  13 C :   -0.037258    0.000981
  14 H :    0.017991   -0.000129
  15 H :    0.017936   -0.000128
  16 C :   -0.026285    0.000015
  17 H :    0.008218    0.000002
  18 H :    0.008211    0.000002
  19 C :    0.002366   -0.000078
  20 H :    0.017383    0.000023
  21 H :    0.017362    0.000023
  22 C :    0.039416    0.010000
  23 H :    0.033504   -0.004498
  24 H :    0.033508   -0.004494
  25 C :   -0.035771   -0.000585
  26 H :    0.017166    0.000088
  27 H :    0.017189    0.000088
  28 C :   -0.025963   -0.000083
  29 H :    0.005875    0.000048
  30 H :    0.005874    0.000048
  31 C :    0.003938    0.000034
  32 H :    0.017909   -0.000003
  33 H :    0.017923   -0.000003
  34 C :    0.152980    0.197939
  35 H :    0.014452   -0.000004
  36 H :    0.013212   -0.000004
  37 C :   -0.253349   -0.045564
  38 C :    0.030786    0.053031
  39 C :    0.041248   -0.027955
  40 C :    0.033206    0.058660
  41 C :    0.041023   -0.027935
  42 C :    0.028068    0.053026
  43 H :   -0.026797   -0.002685
  44 H :   -0.026957    0.001106
  45 H :   -0.040740   -0.002327
  46 H :   -0.039935   -0.002325
  47 H :   -0.026945    0.001107
Sum of atomic charges         :   -0.0000000

LOEWDIN ATOMIC CHARGES AND SPIN POPULATIONS
-------------------------------------------
   0 C :    0.044729    0.459001
   1 C :   -0.022622   -0.052683
   2 C :   -0.130061   -0.072491
   3 C :   -0.010033    0.181448
   4 C :   -0.005654   -0.077923
   5 C :   -0.050560    0.226699
   6 C :   -0.006236   -0.076059
   7 C :   -0.009649    0.184075
   8 H :    0.032262   -0.000680
   9 H :    0.026842    0.000340
  10 C :   -0.039828   -0.000480
  11 H :    0.038996    0.007803
  12 H :    0.038982    0.007793
  13 C :   -0.042462    0.000125
  14 H :    0.025327   -0.000092
  15 H :    0.025330   -0.000092
  16 C :   -0.046606   -0.000030
  17 H :    0.025013    0.000069
  18 H :    0.025010    0.000070
  19 C :   -0.067065   -0.000042
  20 H :    0.025377    0.000014
  21 H :    0.025372    0.000014
  22 C :   -0.032569   -0.000742
  23 H :    0.039571   -0.003492
  24 H :    0.039568   -0.003488
  25 C :   -0.043602    0.000129
  26 H :    0.024722    0.000155
  27 H :    0.024717    0.000155
  28 C :   -0.046917   -0.000017
  29 H :    0.024070    0.000002
  30 H :    0.024069    0.000002
  31 C :   -0.067149    0.000012
  32 H :    0.025602   -0.000004
  33 H :    0.025604   -0.000004
  34 C :   -0.018466    0.146106
  35 H :    0.028352   -0.000006
  36 H :    0.027820   -0.000002
  37 C :   -0.054317   -0.020442
  38 C :   -0.001148    0.041085
  39 C :   -0.023467   -0.016457
  40 C :   -0.020728    0.045407
  41 C :   -0.023582   -0.016444
  42 C :   -0.002097    0.041064
  43 H :    0.028407    0.000166
  44 H :    0.029655   -0.000066
  45 H :    0.029881    0.000031
  46 H :    0.029837    0.000036
  47 H :    0.029705   -0.000066

  Mayer bond orders larger than 0.100000
B(  0-C ,  2-C ) :   1.6817 B(  1-C ,  5-C ) :   0.9449 B(  1-C , 34-C ) :   1.7164
B(  1-C , 37-C ) :  -0.1738 B(  2-C ,  3-C ) :   1.1875 B(  2-C ,  7-C ) :   1.1302
B(  3-C ,  4-C ) :   1.5209 B(  3-C , 10-C ) :   1.0767 B(  4-C ,  5-C ) :   1.3101
B(  4-C ,  8-H ) :   0.9222 B(  5-C ,  6-C ) :   1.3139 B(  6-C ,  7-C ) :   1.5453
B(  6-C , 22-C ) :   1.0908 B(  7-C ,  9-H ) :   0.9161 B( 10-C , 11-H ) :   0.9019
B( 10-C , 12-H ) :   0.9019 B( 10-C , 13-C ) :   1.1042 B( 13-C , 14-H ) :   0.9307
B( 13-C , 15-H ) :   0.9307 B( 13-C , 16-C ) :   1.0748 B( 16-C , 17-H ) :   0.9415
B( 16-C , 18-H ) :   0.9415 B( 16-C , 19-C ) :   1.1060 B( 19-C , 20-H ) :   0.9663
B( 19-C , 21-H ) :   0.9663 B( 19-C , 35-H ) :   0.9619 B( 22-C , 23-H ) :   0.8979
B( 22-C , 24-H ) :   0.8979 B( 22-C , 25-C ) :   1.1036 B( 25-C , 26-H ) :   0.9290
B( 25-C , 27-H ) :   0.9289 B( 25-C , 28-C ) :   1.0753 B( 28-C , 29-H ) :   0.9412
B( 28-C , 30-H ) :   0.9412 B( 28-C , 31-C ) :   1.1062 B( 31-C , 32-H ) :   0.9662
B( 31-C , 33-H ) :   0.9662 B( 31-C , 36-H ) :   0.9616 B( 34-C , 37-C ) :   0.9434
B( 37-C , 38-C ) :   1.4324 B( 37-C , 42-C ) :   1.4299 B( 38-C , 39-C ) :   1.4740
B( 38-C , 45-H ) :   0.9404 B( 39-C , 40-C ) :   1.4410 B( 39-C , 47-H ) :   0.9380
B( 40-C , 41-C ) :   1.4407 B( 40-C , 43-H ) :   0.9434 B( 41-C , 42-C ) :   1.4739
B( 41-C , 44-H ) :   0.9380 B( 42-C , 46-H ) :   0.9408

FINAL SINGLE POINT ENERGY      -890.752881097123

DIPOLE MOMENT
-------------
                                X             Y             Z
Electronic contribution:     11.93774      -0.25381       0.00026
Nuclear contribution   :    -10.82152       0.14233      -0.00026
                        -----------------------------------------
Total Dipole Moment    :      1.11622      -0.11147      -0.00000
                        -----------------------------------------
Magnitude (a.u.)       :      1.12177
Magnitude (Debye)      :      2.85132

Rotational constants in cm-1:     0.006741     0.004685     0.002775
Rotational constants in MHz :   202.092440   140.449518    83.205489

                             ****ORCA TERMINATED NORMALLY****
TOTAL RUN TIME: 0 days 0 hours 4 minutes 9 seconds 861 msec
