                         Program Version 4.2.1 -  RELEASE  -
|  1> ! B3LYP cc-pVDZ OPT
|  2> %pal nprocs 16 end
|  3>
|  4> *XYZFile 0 4 model.xyz
|  5>
|  6>                          ****END OF INPUT****
 Total Charge           Charge          ....    0
 Multiplicity           Mult            ....    4
 Number of Electrons    NEL             ....  163
FINAL SINGLE POINT ENERGY      -890.696943350193
FINAL SINGLE POINT ENERGY      -890.697257853028
FINAL SINGLE POINT ENERGY      -890.697352893667
FINAL SINGLE POINT ENERGY      -890.697361784498
FINAL SINGLE POINT ENERGY      -890.697363826864
                    ***********************HURRAY********************

CARTESIAN COORDINATES (ANGSTROEM)
---------------------------------
  C     -2.831391    0.021182   -0.012661
  C      2.816845   -0.008312   -0.008924
  C     -1.419541    0.001338   -0.011737
  C     -0.709963   -1.250857   -0.014243
  C      0.675766   -1.194434   -0.013182
  C      1.396909    0.027179   -0.009771
  C      0.693099    1.270422   -0.007184
  C     -0.693342    1.232627   -0.008270
  H      1.253226   -2.119491   -0.015001
  H     -1.270312    2.156411   -0.006461
  C     -1.493408   -2.545494   -0.017765
  H     -2.168854   -2.534281   -0.894708
  H     -2.170230   -2.538159    0.858164
  C     -0.684894   -3.845335   -0.019967
  H     -0.021156   -3.871662   -0.904323
  H     -0.022599   -3.875523    0.865343
  C     -1.573239   -5.094776   -0.023343
  H     -2.240201   -5.069963    0.858912
  H     -2.238575   -5.066345   -0.906712
  C     -0.774874   -6.400295   -0.025281
  H     -0.125949   -6.474966    0.864705
  H     -0.124165   -6.471227   -0.914276
  C      1.475651    2.570239   -0.003604
  H      2.151525    2.561134    0.871912
  H      2.152510    2.565309   -0.878395
  C      0.664420    3.868042   -0.001028
  H      0.001819    3.898405   -0.886128
  H      0.000578    3.894171    0.883278
  C      1.551257    5.118603    0.002493
  H      2.216666    5.090712    0.885891
  H      2.218179    5.094614   -0.879880
  C      0.751730    6.423425    0.004691
  H      0.100936    6.493493    0.893674
  H      0.102662    6.497556   -0.885217
  C      4.040725   -0.049781   -0.010055
  H     -1.439020   -7.279604   -0.027809
  H      1.414891    7.303505    0.007357
  C      5.466037   -0.097147   -0.009578
  C      6.145769   -1.335718   -0.018621
  C      7.539307   -1.376118   -0.018069
  C      8.282078   -0.189776   -0.008569
  C      7.619203    1.043054    0.000402
  C      6.226068    1.093977   -0.000090
  H      9.374276   -0.226179   -0.008133
  H      8.193228    1.972805    0.007947
  H      5.564989   -2.259983   -0.026178
  H      5.707300    2.054573    0.007045
  H      8.051339   -2.341486   -0.025225

 Multiplicity           Mult            ....    4
 Number of Electrons    NEL             ....  163
 Basis Dimension        Dim             ....  447

ORBITAL ENERGIES
----------------
                 SPIN UP ORBITALS
  NO   OCC          E(Eh)            E(eV)
   0   1.0000     -10.240932      -278.6699
   1   1.0000     -10.222323      -278.1635
   2   1.0000     -10.215638      -277.9816
   3   1.0000     -10.212225      -277.8888
   4   1.0000     -10.203274      -277.6452
   5   1.0000     -10.200014      -277.5565
   6   1.0000     -10.196909      -277.4720
   7   1.0000     -10.196719      -277.4668
   8   1.0000     -10.195787      -277.4415
   9   1.0000     -10.194857      -277.4162
  10   1.0000     -10.194728      -277.4127
  11   1.0000     -10.193322      -277.3744
  12   1.0000     -10.191068      -277.3131
  13   1.0000     -10.190098      -277.2867
  14   1.0000     -10.189042      -277.2579
  15   1.0000     -10.187318      -277.2110
  16   1.0000     -10.187235      -277.2088
  17   1.0000     -10.183182      -277.0985
  18   1.0000     -10.182771      -277.0873
  19   1.0000     -10.182496      -277.0798
  20   1.0000     -10.182193      -277.0716
  21   1.0000     -10.176478      -276.9161
  22   1.0000     -10.176176      -276.9078
  23   1.0000      -0.875336       -23.8191
  24   1.0000      -0.863153       -23.4876
  25   1.0000      -0.819682       -22.3047
  26   1.0000      -0.797799       -21.7092
  27   1.0000      -0.796187       -21.6654
  28   1.0000      -0.777912       -21.1681
  29   1.0000      -0.766780       -20.8651
  30   1.0000      -0.750822       -20.4309
  31   1.0000      -0.736699       -20.0466
  32   1.0000      -0.724559       -19.7163
  33   1.0000      -0.701789       -19.0967
  34   1.0000      -0.674640       -18.3579
  35   1.0000      -0.653728       -17.7888
  36   1.0000      -0.626688       -17.0530
  37   1.0000      -0.615550       -16.7500
  38   1.0000      -0.608680       -16.5630
  39   1.0000      -0.596973       -16.2445
  40   1.0000      -0.580187       -15.7877
  41   1.0000      -0.565319       -15.3831
  42   1.0000      -0.554198       -15.0805
  43   1.0000      -0.534644       -14.5484
  44   1.0000      -0.507843       -13.8191
  45   1.0000      -0.479954       -13.0602
  46   1.0000      -0.478808       -13.0290
  47   1.0000      -0.472215       -12.8496
  48   1.0000      -0.470531       -12.8038
  49   1.0000      -0.457393       -12.4463
  50   1.0000      -0.437359       -11.9012
  51   1.0000      -0.435911       -11.8617
  52   1.0000      -0.426876       -11.6159
  53   1.0000      -0.424901       -11.5621
  54   1.0000      -0.423993       -11.5374
  55   1.0000      -0.423386       -11.5209
  56   1.0000      -0.417769       -11.3681
  57   1.0000      -0.413010       -11.2386
  58   1.0000      -0.410385       -11.1671
  59   1.0000      -0.384987       -10.4760
  60   1.0000      -0.381558       -10.3827
  61   1.0000      -0.377613       -10.2754
  62   1.0000      -0.370530       -10.0826
  63   1.0000      -0.366345        -9.9687
  64   1.0000      -0.360623        -9.8130
  65   1.0000      -0.359057        -9.7704
  66   1.0000      -0.350186        -9.5290
  67   1.0000      -0.346179        -9.4200
  68   1.0000      -0.343408        -9.3446
  69   1.0000      -0.333976        -9.0879
  70   1.0000      -0.330511        -8.9937
  71   1.0000      -0.327513        -8.9121
  72   1.0000      -0.326448        -8.8831
  73   1.0000      -0.323187        -8.7944
  74   1.0000      -0.321912        -8.7597
  75   1.0000      -0.321400        -8.7457
  76   1.0000      -0.291135        -7.9222
  77   1.0000      -0.267621        -7.2823
  78   1.0000      -0.259118        -7.0509
  79   1.0000      -0.250009        -6.8031
  80   1.0000      -0.237436        -6.4610
  81   1.0000      -0.224893        -6.1197
  82   1.0000      -0.180562        -4.9133
  83   0.0000      -0.042066        -1.1447
  84   0.0000      -0.010438        -0.2840
  85   0.0000      -0.002777        -0.0756
  86   0.0000       0.012238         0.3330
  87   0.0000       0.045689         1.2433

                 SPIN DOWN ORBITALS
  NO   OCC          E(Eh)            E(eV)
   0   1.0000     -10.222340      -278.1640
   1   1.0000     -10.216143      -277.9954
   2   1.0000     -10.208695      -277.7927
   3   1.0000     -10.201727      -277.6031
   4   1.0000     -10.201540      -277.5980
   5   1.0000     -10.199048      -277.5302
   6   1.0000     -10.196374      -277.4574
   7   1.0000     -10.196187      -277.4524
   8   1.0000     -10.195420      -277.4315
   9   1.0000     -10.195100      -277.4228
  10   1.0000     -10.194780      -277.4141
  11   1.0000     -10.192552      -277.3534
  12   1.0000     -10.189513      -277.2708
  13   1.0000     -10.189092      -277.2593
  14   1.0000     -10.189073      -277.2588
  15   1.0000     -10.187144      -277.2063
  16   1.0000     -10.187057      -277.2039
  17   1.0000     -10.183133      -277.0971
  18   1.0000     -10.182766      -277.0872
  19   1.0000     -10.182496      -277.0798
  20   1.0000     -10.182193      -277.0715
  21   1.0000     -10.176480      -276.9161
  22   1.0000     -10.176175      -276.9078
  23   1.0000      -0.868718       -23.6390
  24   1.0000      -0.862377       -23.4665
  25   1.0000      -0.815383       -22.1877
  26   1.0000      -0.795897       -21.6575
  27   1.0000      -0.790518       -21.5111
  28   1.0000      -0.773117       -21.0376
  29   1.0000      -0.763023       -20.7629
  30   1.0000      -0.750320       -20.4172
  31   1.0000      -0.733156       -19.9502
  32   1.0000      -0.719590       -19.5810
  33   1.0000      -0.698967       -19.0199
  34   1.0000      -0.652311       -17.7503
  35   1.0000      -0.649924       -17.6853
  36   1.0000      -0.623094       -16.9552
  37   1.0000      -0.613036       -16.6816
  38   1.0000      -0.608353       -16.5541
  39   1.0000      -0.590766       -16.0756
  40   1.0000      -0.579674       -15.7737
  41   1.0000      -0.561852       -15.2888
  42   1.0000      -0.539122       -14.6703
  43   1.0000      -0.515228       -14.0201
  44   1.0000      -0.505428       -13.7534
  45   1.0000      -0.478190       -13.0122
  46   1.0000      -0.472483       -12.8569
  47   1.0000      -0.471524       -12.8308
  48   1.0000      -0.470513       -12.8033
  49   1.0000      -0.457027       -12.4363
  50   1.0000      -0.435514       -11.8509
  51   1.0000      -0.429765       -11.6945
  52   1.0000      -0.423835       -11.5331
  53   1.0000      -0.423487       -11.5237
  54   1.0000      -0.422913       -11.5081
  55   1.0000      -0.422627       -11.5003
  56   1.0000      -0.417161       -11.3515
  57   1.0000      -0.410710       -11.1760
  58   1.0000      -0.399342       -10.8667
  59   1.0000      -0.381824       -10.3900
  60   1.0000      -0.373141       -10.1537
  61   1.0000      -0.369087       -10.0434
  62   1.0000      -0.365707        -9.9514
  63   1.0000      -0.361263        -9.8305
  64   1.0000      -0.357476        -9.7274
  65   1.0000      -0.357431        -9.7262
  66   1.0000      -0.349864        -9.5203
  67   1.0000      -0.340881        -9.2759
  68   1.0000      -0.333818        -9.0837
  69   1.0000      -0.329504        -8.9663
  70   1.0000      -0.326663        -8.8889
  71   1.0000      -0.325619        -8.8605
  72   1.0000      -0.322937        -8.7876
  73   1.0000      -0.320516        -8.7217
  74   1.0000      -0.315053        -8.5730
  75   1.0000      -0.275392        -7.4938
  76   1.0000      -0.267116        -7.2686
  77   1.0000      -0.257702        -7.0124
  78   1.0000      -0.242391        -6.5958
  79   1.0000      -0.219966        -5.9856
  80   0.0000      -0.158433        -4.3112
  81   0.0000      -0.085372        -2.3231
  82   0.0000      -0.031371        -0.8537
  83   0.0000      -0.025257        -0.6873
  84   0.0000      -0.009202        -0.2504

MULLIKEN ATOMIC CHARGES AND SPIN POPULATIONS
--------------------------------------------
   0 C :   -0.196025    2.536823
   1 C :    0.250675   -0.088978
   2 C :    0.112378   -0.156252
   3 C :   -0.052048    0.251721
   4 C :    0.011290   -0.116780
   5 C :   -0.175139    0.234622
   6 C :   -0.076128   -0.116395
   7 C :    0.042312    0.247067
   8 H :   -0.052164    0.009146
   9 H :   -0.048626   -0.002213
  10 C :    0.043918   -0.007725
  11 H :    0.031135    0.009248
  12 H :    0.031148    0.009245
  13 C :   -0.039129    0.002896
  14 H :    0.017024    0.000417
  15 H :    0.016963    0.000417
  16 C :   -0.024439   -0.000044
  17 H :    0.006553    0.000129
  18 H :    0.006482    0.000129
  19 C :    0.002077   -0.000125
  20 H :    0.016872    0.000013
  21 H :    0.016866    0.000013
  22 C :    0.036771    0.013230
  23 H :    0.033402   -0.003840
  24 H :    0.033423   -0.003842
  25 C :   -0.035910   -0.000662
  26 H :    0.016188    0.000090
  27 H :    0.016238    0.000090
  28 C :   -0.024878   -0.000079
  29 H :    0.005438    0.000035
  30 H :    0.005535    0.000035
  31 C :    0.003247    0.000048
  32 H :    0.017092   -0.000006
  33 H :    0.017098   -0.000006
  34 C :    0.153372    0.142422
  35 H :    0.012911   -0.000024
  36 H :    0.012350   -0.000006
  37 C :   -0.253988   -0.033090
  38 C :    0.032491    0.037125
  39 C :    0.041162   -0.019592
  40 C :    0.025335    0.040705
  41 C :    0.044271   -0.019561
  42 C :    0.026485    0.037107
  43 H :   -0.022892   -0.001865
  44 H :   -0.028210    0.000779
  45 H :   -0.040606   -0.001632
  46 H :   -0.039699   -0.001613
  47 H :   -0.028621    0.000780
Sum of atomic charges         :   -0.0000000

LOEWDIN ATOMIC CHARGES AND SPIN POPULATIONS
-------------------------------------------
   0 C :    0.028053    2.380192
   1 C :   -0.019421   -0.041472
   2 C :   -0.091218    0.042822
   3 C :   -0.009303    0.192234
   4 C :   -0.007990   -0.064965
   5 C :   -0.051487    0.169911
   6 C :   -0.009566   -0.064391
   7 C :   -0.009906    0.197068
   8 H :    0.030142    0.003206
   9 H :    0.027635    0.004406
  10 C :   -0.036023    0.008525
  11 H :    0.037653    0.008493
  12 H :    0.037655    0.008493
  13 C :   -0.043441    0.002212
  14 H :    0.024714    0.000298
  15 H :    0.024708    0.000298
  16 C :   -0.047076    0.000161
  17 H :    0.024158    0.000110
  18 H :    0.024143    0.000110
  19 C :   -0.067374   -0.000057
  20 H :    0.025168    0.000015
  21 H :    0.025167    0.000015
  22 C :   -0.034310    0.002497
  23 H :    0.038861   -0.002929
  24 H :    0.038890   -0.002930
  25 C :   -0.043821    0.000118
  26 H :    0.024391    0.000119
  27 H :    0.024397    0.000119
  28 C :   -0.047249    0.000028
  29 H :    0.023777    0.000002
  30 H :    0.023801    0.000002
  31 C :   -0.067396    0.000021
  32 H :    0.025257   -0.000004
  33 H :    0.025258   -0.000004
  34 C :   -0.022140    0.104441
  35 H :    0.027706   -0.000016
  36 H :    0.027478   -0.000003
  37 C :   -0.053611   -0.014964
  38 C :   -0.001435    0.028686
  39 C :   -0.023518   -0.011553
  40 C :   -0.023068    0.031459
  41 C :   -0.023554   -0.011531
  42 C :   -0.002585    0.028674
  43 H :    0.028683    0.000120
  44 H :    0.029166   -0.000046
  45 H :    0.029833    0.000024
  46 H :    0.029709    0.000033
  47 H :    0.029087   -0.000046

  Mayer bond orders larger than 0.100000
B(  0-C ,  2-C ) :   1.2829 B(  1-C ,  5-C ) :   0.9253 B(  1-C , 34-C ) :   1.7541
B(  1-C , 37-C ) :  -0.1716 B(  2-C ,  3-C ) :   1.2621 B(  2-C ,  7-C ) :   1.2334
B(  3-C ,  4-C ) :   1.4837 B(  3-C , 10-C ) :   1.0772 B(  4-C ,  5-C ) :   1.3383
B(  4-C ,  8-H ) :   0.9246 B(  5-C ,  6-C ) :   1.3572 B(  6-C ,  7-C ) :   1.4920
B(  6-C , 22-C ) :   1.0918 B(  7-C ,  9-H ) :   0.9194 B( 10-C , 11-H ) :   0.9015
B( 10-C , 12-H ) :   0.9015 B( 10-C , 13-C ) :   1.1020 B( 13-C , 14-H ) :   0.9299
B( 13-C , 15-H ) :   0.9299 B( 13-C , 16-C ) :   1.0741 B( 16-C , 17-H ) :   0.9418
B( 16-C , 18-H ) :   0.9418 B( 16-C , 19-C ) :   1.1040 B( 19-C , 20-H ) :   0.9666
B( 19-C , 21-H ) :   0.9666 B( 19-C , 35-H ) :   0.9628 B( 22-C , 23-H ) :   0.8983
B( 22-C , 24-H ) :   0.8983 B( 22-C , 25-C ) :   1.1024 B( 25-C , 26-H ) :   0.9295
B( 25-C , 27-H ) :   0.9295 B( 25-C , 28-C ) :   1.0744 B( 28-C , 29-H ) :   0.9416
B( 28-C , 30-H ) :   0.9416 B( 28-C , 31-C ) :   1.1042 B( 31-C , 32-H ) :   0.9665
B( 31-C , 33-H ) :   0.9665 B( 31-C , 36-H ) :   0.9626 B( 34-C , 37-C ) :   0.9395
B( 37-C , 38-C ) :   1.4346 B( 37-C , 42-C ) :   1.4336 B( 38-C , 39-C ) :   1.4746
B( 38-C , 45-H ) :   0.9404 B( 39-C , 40-C ) :   1.4435 B( 39-C , 47-H ) :   0.9377
B( 40-C , 41-C ) :   1.4413 B( 40-C , 43-H ) :   0.9442 B( 41-C , 42-C ) :   1.4746
B( 41-C , 44-H ) :   0.9377 B( 42-C , 46-H ) :   0.9407

FINAL SINGLE POINT ENERGY      -890.697363968104

DIPOLE MOMENT
-------------
                                X             Y             Z
Electronic contribution:     11.11751      -0.24164      -0.00039
Nuclear contribution   :    -10.66818       0.20136       0.00044
                        -----------------------------------------
Total Dipole Moment    :      0.44933      -0.04029       0.00006
                        -----------------------------------------
Magnitude (a.u.)       :      0.45113
Magnitude (Debye)      :      1.14668

Rotational constants in cm-1:     0.006769     0.004683     0.002780
Rotational constants in MHz :   202.920421   140.398103    83.327477

                             ****ORCA TERMINATED NORMALLY****
TOTAL RUN TIME: 0 days 0 hours 17 minutes 59 seconds 9 msec
