                         Program Version 5.0.4 -  RELEASE  -
|  1> ! B3LYP EPR-II OPT FREQ
|  2> %pal nprocs 16 end
|  3> *XYZFile 0 2 model.xyz
|  4>
|  5>                          ****END OF INPUT****
 Total Charge           Charge          ....    0
 Multiplicity           Mult            ....    2
 Number of Electrons    NEL             ....  117
FINAL SINGLE POINT ENERGY      -621.857377857788
FINAL SINGLE POINT ENERGY      -621.866014276546
FINAL SINGLE POINT ENERGY      -621.866784726891
FINAL SINGLE POINT ENERGY      -621.866898106596
FINAL SINGLE POINT ENERGY      -621.866922179071
                    ***********************HURRAY********************

CARTESIAN COORDINATES (ANGSTROEM)
---------------------------------
  C     -0.076122   -0.011892   -0.000317
  C      1.326183    0.013929   -0.000063
  C      2.088847   -1.211300   -0.003391
  C      3.483959   -1.094227   -0.002912
  C      4.113565    0.161459    0.000691
  C      3.382691    1.377096    0.004023
  C      1.994582    1.281461    0.003546
  H      4.101019   -1.986142   -0.005342
  H      1.370545    2.167830    0.005930
  C      1.371213   -2.547427   -0.007228
  H      0.700961   -2.569613   -0.876115
  H      0.699279   -2.573667    0.860228
  C      2.258233   -3.802106   -0.009315
  H      2.914907   -3.796778   -0.889859
  H      2.913470   -3.800638    0.872319
  C      1.429085   -5.099536   -0.012844
  H      0.769568   -5.108717    0.864617
  H      0.771102   -5.104953   -0.891488
  C      2.300411   -6.367149   -0.014805
  H      2.945394   -6.404015    0.870452
  H      2.947352   -6.399934   -0.898795
  C      4.138362    2.698956    0.007889
  H      4.802037    2.710669    0.883785
  H      4.803395    2.714969   -0.866904
  C      3.281896    3.974623    0.010362
  H      2.626024    3.982873   -0.870208
  H      2.624555    3.978531    0.889860
  C      4.133269    5.257207    0.014253
  H      4.790750    5.252399    0.893825
  H      4.792396    5.256623   -0.864099
  C      3.283032    6.539289    0.016551
  H      2.636411    6.581612    0.900030
  H      2.638550    6.586209   -0.868258
  H      1.684874   -7.272360   -0.017574
  H      3.913240    7.434359    0.019640
  H      5.201627    0.203465    0.000915
  C     -1.366953   -0.038870   -0.000562

 Multiplicity           Mult            ....    2
 Number of Electrons    NEL             ....  117
 Basis Dimension        Dim             ....  419

ORBITAL ENERGIES
----------------
                 SPIN UP ORBITALS
  NO   OCC          E(Eh)            E(eV)
   0   1.0000     -10.245770      -278.8016
   1   1.0000     -10.240276      -278.6521
   2   1.0000     -10.232942      -278.4525
   3   1.0000     -10.229286      -278.3530
   4   1.0000     -10.223326      -278.1908
   5   1.0000     -10.218576      -278.0616
   6   1.0000     -10.206212      -277.7252
   7   1.0000     -10.200243      -277.5627
   8   1.0000     -10.197865      -277.4980
   9   1.0000     -10.195425      -277.4316
  10   1.0000     -10.193838      -277.3884
  11   1.0000     -10.191110      -277.3142
  12   1.0000     -10.191075      -277.3132
  13   1.0000     -10.186522      -277.1894
  14   1.0000     -10.177860      -276.9536
  15   1.0000     -10.175862      -276.8993
  16   1.0000      -0.888683       -24.1823
  17   1.0000      -0.827909       -22.5286
  18   1.0000      -0.802977       -21.8501
  19   1.0000      -0.796356       -21.6699
  20   1.0000      -0.776742       -21.1362
  21   1.0000      -0.741394       -20.1744
  22   1.0000      -0.727706       -19.8019
  23   1.0000      -0.708200       -19.2711
  24   1.0000      -0.664361       -18.0782
  25   1.0000      -0.641353       -17.4521
  26   1.0000      -0.631864       -17.1939
  27   1.0000      -0.601630       -16.3712
  28   1.0000      -0.589257       -16.0345
  29   1.0000      -0.576510       -15.6876
  30   1.0000      -0.525924       -14.3111
  31   1.0000      -0.496766       -13.5177
  32   1.0000      -0.486045       -13.2260
  33   1.0000      -0.484017       -13.1708
  34   1.0000      -0.479709       -13.0535
  35   1.0000      -0.449614       -12.2346
  36   1.0000      -0.436067       -11.8660
  37   1.0000      -0.435597       -11.8532
  38   1.0000      -0.429058       -11.6753
  39   1.0000      -0.428670       -11.6647
  40   1.0000      -0.419859       -11.4250
  41   1.0000      -0.401378       -10.9220
  42   1.0000      -0.391917       -10.6646
  43   1.0000      -0.381380       -10.3779
  44   1.0000      -0.376365       -10.2414
  45   1.0000      -0.370024       -10.0689
  46   1.0000      -0.364776        -9.9261
  47   1.0000      -0.355419        -9.6714
  48   1.0000      -0.341606        -9.2956
  49   1.0000      -0.337014        -9.1706
  50   1.0000      -0.335816        -9.1380
  51   1.0000      -0.333763        -9.0822
  52   1.0000      -0.331887        -9.0311
  53   1.0000      -0.330313        -8.9883
  54   1.0000      -0.320955        -8.7336
  55   1.0000      -0.268893        -7.3169
  56   1.0000      -0.259957        -7.0738
  57   1.0000      -0.255170        -6.9435
  58   1.0000      -0.241445        -6.5700
  59   0.0000      -0.061247        -1.6666
  60   0.0000      -0.027251        -0.7415
  61   0.0000       0.007791         0.2120
  62   0.0000       0.016356         0.4451
  63   0.0000       0.020554         0.5593

                 SPIN DOWN ORBITALS
  NO   OCC          E(Eh)            E(eV)
   0   1.0000     -10.246136      -278.8115
   1   1.0000     -10.237757      -278.5835
   2   1.0000     -10.230426      -278.3841
   3   1.0000     -10.229694      -278.3641
   4   1.0000     -10.221543      -278.1423
   5   1.0000     -10.219777      -278.0943
   6   1.0000     -10.206142      -277.7232
   7   1.0000     -10.198021      -277.5023
   8   1.0000     -10.195931      -277.4454
   9   1.0000     -10.193841      -277.3885
  10   1.0000     -10.191113      -277.3143
  11   1.0000     -10.191075      -277.3133
  12   1.0000     -10.190633      -277.3012
  13   1.0000     -10.186524      -277.1894
  14   1.0000     -10.177860      -276.9536
  15   1.0000     -10.175863      -276.8993
  16   1.0000      -0.885136       -24.0858
  17   1.0000      -0.826451       -22.4889
  18   1.0000      -0.802243       -21.8301
  19   1.0000      -0.791386       -21.5347
  20   1.0000      -0.775757       -21.1094
  21   1.0000      -0.740642       -20.1539
  22   1.0000      -0.714439       -19.4409
  23   1.0000      -0.700800       -19.0697
  24   1.0000      -0.663607       -18.0577
  25   1.0000      -0.635554       -17.2943
  26   1.0000      -0.630785       -17.1645
  27   1.0000      -0.599618       -16.3164
  28   1.0000      -0.589130       -16.0310
  29   1.0000      -0.575843       -15.6695
  30   1.0000      -0.524017       -14.2592
  31   1.0000      -0.494113       -13.4455
  32   1.0000      -0.484396       -13.1811
  33   1.0000      -0.483934       -13.1685
  34   1.0000      -0.478889       -13.0312
  35   1.0000      -0.448596       -12.2069
  36   1.0000      -0.434858       -11.8331
  37   1.0000      -0.434352       -11.8193
  38   1.0000      -0.428922       -11.6716
  39   1.0000      -0.427162       -11.6237
  40   1.0000      -0.419654       -11.4194
  41   1.0000      -0.400697       -10.9035
  42   1.0000      -0.385633       -10.4936
  43   1.0000      -0.380600       -10.3567
  44   1.0000      -0.376223       -10.2376
  45   1.0000      -0.368865       -10.0373
  46   1.0000      -0.363826        -9.9002
  47   1.0000      -0.352169        -9.5830
  48   1.0000      -0.341513        -9.2930
  49   1.0000      -0.336890        -9.1672
  50   1.0000      -0.335320        -9.1245
  51   1.0000      -0.333651        -9.0791
  52   1.0000      -0.331504        -9.0207
  53   1.0000      -0.329867        -8.9761
  54   1.0000      -0.296284        -8.0623
  55   1.0000      -0.261878        -7.1260
  56   1.0000      -0.249664        -6.7937
  57   1.0000      -0.247635        -6.7385
  58   0.0000      -0.159981        -4.3533
  59   0.0000      -0.039950        -1.0871
  60   0.0000      -0.020043        -0.5454
  61   0.0000       0.008029         0.2185
  62   0.0000       0.016353         0.4450

MULLIKEN ATOMIC CHARGES AND SPIN POPULATIONS
--------------------------------------------
   0 C :   -0.120669    0.336632
   1 C :    0.439671   -0.022139
   2 C :    0.283634    0.173505
   3 C :   -0.234605   -0.086784
   4 C :   -0.277901    0.224655
   5 C :    0.483902   -0.068698
   6 C :   -0.387839    0.117687
   7 H :    0.126270    0.003446
   8 H :    0.149831   -0.006479
   9 C :   -0.357803   -0.018782
  10 H :    0.167856    0.008261
  11 H :    0.167848    0.008253
  12 C :   -0.271239    0.000642
  13 H :    0.140074   -0.000069
  14 H :    0.140150   -0.000069
  15 C :   -0.262102    0.000044
  16 H :    0.148503    0.000002
  17 H :    0.148488    0.000002
  18 C :   -0.510064   -0.000046
  19 H :    0.158594    0.000019
  20 H :    0.158573    0.000019
  21 C :   -0.393859    0.003749
  22 H :    0.153670   -0.001756
  23 H :    0.153611   -0.001755
  24 C :   -0.264757   -0.000268
  25 H :    0.146757    0.000224
  26 H :    0.146702    0.000223
  27 C :   -0.263631   -0.000077
  28 H :    0.143681    0.000039
  29 H :    0.143676    0.000039
  30 C :   -0.506966    0.000005
  31 H :    0.161475   -0.000005
  32 H :    0.161487   -0.000005
  33 H :    0.148493   -0.000005
  34 H :    0.146436   -0.000004
  35 H :    0.117621   -0.012078
  36 C :   -0.485565    0.341573
Sum of atomic charges         :   -0.0000000

LOEWDIN ATOMIC CHARGES AND SPIN POPULATIONS
-------------------------------------------
   0 C :   -0.118358    0.294326
   1 C :   -0.059970    0.008288
   2 C :   -0.005221    0.138100
   3 C :   -0.036060   -0.049059
   4 C :    0.013947    0.178610
   5 C :   -0.068124   -0.039996
   6 C :    0.022923    0.101797
   7 H :    0.056693   -0.000507
   8 H :    0.066145   -0.000012
   9 C :   -0.040595   -0.000495
  10 H :    0.066882    0.006057
  11 H :    0.066884    0.006049
  12 C :   -0.080409   -0.000128
  13 H :    0.043614   -0.000069
  14 H :    0.043642   -0.000069
  15 C :   -0.086474   -0.000043
  16 H :    0.042684    0.000028
  17 H :    0.042680    0.000028
  18 C :   -0.077693   -0.000033
  19 H :    0.033757    0.000011
  20 H :    0.033754    0.000011
  21 C :   -0.055088    0.000527
  22 H :    0.056557   -0.001401
  23 H :    0.056545   -0.001400
  24 C :   -0.076871   -0.000019
  25 H :    0.046389    0.000179
  26 H :    0.046371    0.000178
  27 C :   -0.089410   -0.000028
  28 H :    0.040914   -0.000007
  29 H :    0.040914   -0.000007
  30 C :   -0.075514    0.000002
  31 H :    0.035016   -0.000003
  32 H :    0.035015   -0.000003
  33 H :    0.032962   -0.000006
  34 H :    0.032386   -0.000002
  35 H :    0.056927    0.000826
  36 C :   -0.143814    0.358271

  Mayer bond orders larger than 0.100000
B(  0-C ,  1-C ) :   1.0649 B(  0-C ,  6-C ) :   0.1058 B(  0-C , 36-C ) :   2.0345
B(  1-C ,  2-C ) :   1.2749 B(  1-C ,  6-C ) :   1.3434 B(  2-C ,  3-C ) :   1.4634
B(  2-C ,  4-C ) :   0.1203 B(  2-C ,  9-C ) :   0.9744 B(  3-C ,  4-C ) :   1.4555
B(  3-C ,  7-H ) :   0.9694 B(  4-C ,  5-C ) :   1.3175 B(  4-C ,  6-C ) :   0.1265
B(  4-C , 35-H ) :   0.9732 B(  5-C ,  6-C ) :   1.5126 B(  5-C , 21-C ) :   0.8982
B(  6-C ,  8-H ) :   0.9674 B(  9-C , 10-H ) :   0.9479 B(  9-C , 11-H ) :   0.9479
B(  9-C , 12-C ) :   1.0074 B( 12-C , 13-H ) :   0.9621 B( 12-C , 14-H ) :   0.9621
B( 12-C , 15-C ) :   0.9920 B( 15-C , 16-H ) :   0.9703 B( 15-C , 17-H ) :   0.9703
B( 15-C , 18-C ) :   0.9553 B( 18-C , 19-H ) :   0.9727 B( 18-C , 20-H ) :   0.9727
B( 18-C , 33-H ) :   0.9672 B( 21-C , 22-H ) :   0.9663 B( 21-C , 23-H ) :   0.9663
B( 21-C , 24-C ) :   1.0175 B( 24-C , 25-H ) :   0.9620 B( 24-C , 26-H ) :   0.9620
B( 24-C , 27-C ) :   0.9845 B( 27-C , 28-H ) :   0.9721 B( 27-C , 29-H ) :   0.9721
B( 27-C , 30-C ) :   0.9598 B( 30-C , 31-H ) :   0.9711 B( 30-C , 32-H ) :   0.9711
B( 30-C , 34-H ) :   0.9677

FINAL SINGLE POINT ENERGY      -621.866923017662

DIPOLE MOMENT
-------------
                                X             Y             Z
Electronic contribution:     -7.27666      -0.28263      -0.00397
Nuclear contribution   :     10.05510       0.31066       0.00443
                        -----------------------------------------
Total Dipole Moment    :      2.77844       0.02803       0.00046
                        -----------------------------------------
Magnitude (a.u.)       :      2.77858
Magnitude (Debye)      :      7.06259

VIBRATIONAL FREQUENCIES
-----------------------

Scaling factor for frequencies =  1.000000000  (already applied!)

   0:         0.00 cm**-1
   1:         0.00 cm**-1
   2:         0.00 cm**-1
   3:         0.00 cm**-1
   4:         0.00 cm**-1
   5:         0.00 cm**-1
   6:        12.47 cm**-1
   7:        22.98 cm**-1
   8:        59.41 cm**-1
   9:        59.63 cm**-1
  10:        80.33 cm**-1
  11:        83.90 cm**-1
  12:       101.85 cm**-1
  13:       110.96 cm**-1
  14:       111.95 cm**-1
  15:       126.37 cm**-1
  16:       137.69 cm**-1
  17:       208.07 cm**-1
  18:       225.14 cm**-1
  19:       227.07 cm**-1
  20:       239.31 cm**-1
  21:       242.36 cm**-1
  22:       291.32 cm**-1
  23:       309.51 cm**-1
  24:       331.43 cm**-1
  25:       429.98 cm**-1
  26:       444.16 cm**-1
  27:       445.90 cm**-1
  28:       483.78 cm**-1
  29:       537.46 cm**-1
  30:       540.37 cm**-1
  31:       592.19 cm**-1
  32:       692.86 cm**-1
  33:       721.11 cm**-1
  34:       731.45 cm**-1
  35:       742.64 cm**-1
  36:       776.50 cm**-1
  37:       778.27 cm**-1
  38:       793.68 cm**-1
  39:       857.82 cm**-1
  40:       904.31 cm**-1
  41:       907.81 cm**-1
  42:       911.42 cm**-1
  43:       942.35 cm**-1
  44:       950.21 cm**-1
  45:       958.34 cm**-1
  46:       999.92 cm**-1
  47:      1025.62 cm**-1
  48:      1027.11 cm**-1
  49:      1066.54 cm**-1
  50:      1069.21 cm**-1
  51:      1104.06 cm**-1
  52:      1116.87 cm**-1
  53:      1121.89 cm**-1
  54:      1127.54 cm**-1
  55:      1131.51 cm**-1
  56:      1170.18 cm**-1
  57:      1198.18 cm**-1
  58:      1217.19 cm**-1
  59:      1238.36 cm**-1
  60:      1239.71 cm**-1
  61:      1274.55 cm**-1
  62:      1278.99 cm**-1
  63:      1297.33 cm**-1
  64:      1311.60 cm**-1
  65:      1314.30 cm**-1
  66:      1330.98 cm**-1
  67:      1331.54 cm**-1
  68:      1338.94 cm**-1
  69:      1357.45 cm**-1
  70:      1372.24 cm**-1
  71:      1390.09 cm**-1
  72:      1400.57 cm**-1
  73:      1411.64 cm**-1
  74:      1411.77 cm**-1
  75:      1419.18 cm**-1
  76:      1460.32 cm**-1
  77:      1475.66 cm**-1
  78:      1490.10 cm**-1
  79:      1490.62 cm**-1
  80:      1492.98 cm**-1
  81:      1501.78 cm**-1
  82:      1502.53 cm**-1
  83:      1505.75 cm**-1
  84:      1505.91 cm**-1
  85:      1515.63 cm**-1
  86:      1515.90 cm**-1
  87:      1561.12 cm**-1
  88:      1624.24 cm**-1
  89:      1969.29 cm**-1
  90:      3002.24 cm**-1
  91:      3002.48 cm**-1
  92:      3006.18 cm**-1
  93:      3015.35 cm**-1
  94:      3015.43 cm**-1
  95:      3020.17 cm**-1
  96:      3022.37 cm**-1
  97:      3026.01 cm**-1
  98:      3028.60 cm**-1
  99:      3032.66 cm**-1
 100:      3037.69 cm**-1
 101:      3048.54 cm**-1
 102:      3062.97 cm**-1
 103:      3064.24 cm**-1
 104:      3088.78 cm**-1
 105:      3091.50 cm**-1
 106:      3094.86 cm**-1
 107:      3095.83 cm**-1
 108:      3157.37 cm**-1
 109:      3202.51 cm**-1
 110:      3212.94 cm**-1

IR SPECTRUM
-----------

 Mode   freq       eps      Int      T**2         TX        TY        TZ
       cm**-1   L/(mol*cm) km/mol    a.u.
----------------------------------------------------------------------------
  6:     12.47   0.000027    0.13  0.000664  (-0.000004  0.000027 -0.025774)
  7:     22.98   0.000279    1.41  0.003789  ( 0.000003 -0.000225  0.061555)
  8:     59.41   0.000031    0.16  0.000163  (-0.010172 -0.005493 -0.005451)
  9:     59.63   0.000059    0.30  0.000306  ( 0.003243  0.001809 -0.017100)
 10:     80.33   0.000641    3.24  0.002489  (-0.000021  0.000371 -0.049888)
 11:     83.90   0.001152    5.82  0.004284  (-0.001067  0.065444  0.000582)
 12:    101.85   0.003205   16.20  0.009820  (-0.000004 -0.000369  0.099094)
 13:    110.96   0.000095    0.48  0.000269  (-0.000026 -0.000071  0.016388)
 14:    111.95   0.000006    0.03  0.000017  ( 0.000012 -0.000071  0.004180)
 15:    126.37   0.000633    3.20  0.001564  (-0.002686  0.039459  0.000113)
 16:    137.69   0.000177    0.89  0.000400  (-0.000020  0.000069 -0.020005)
 17:    208.07   0.003141   15.87  0.004710  (-0.000008 -0.000186  0.068632)
 18:    225.14   0.000085    0.43  0.000118  ( 0.006270 -0.008859 -0.000019)
 19:    227.07   0.000027    0.14  0.000037  ( 0.005549 -0.002447 -0.000005)
 20:    239.31   0.000092    0.46  0.000120  (-0.000003 -0.000025  0.010933)
 21:    242.36   0.000106    0.54  0.000137  ( 0.000024  0.000037 -0.011708)
 22:    291.32   0.000004    0.02  0.000004  (-0.000407  0.001979 -0.000019)
 23:    309.51   0.000245    1.24  0.000247  ( 0.000002  0.000032 -0.015718)
 24:    331.43   0.000019    0.10  0.000018  (-0.003118 -0.002884 -0.000013)
 25:    429.98   0.000329    1.66  0.000239  ( 0.002443 -0.015260 -0.000102)
 26:    444.16   0.000018    0.09  0.000013  ( 0.000180 -0.003583  0.000350)
 27:    445.90   0.001980   10.01  0.001386  ( 0.000018  0.000109 -0.037224)
 28:    483.78   0.000382    1.93  0.000247  (-0.012518  0.009489  0.000022)
 29:    537.46   0.000253    1.28  0.000147  ( 0.000005 -0.000069  0.012121)
 30:    540.37   0.000384    1.94  0.000222  ( 0.000579  0.014880  0.000069)
 31:    592.19   0.000252    1.27  0.000133  ( 0.011342  0.002075  0.000011)
 32:    692.86   0.000140    0.71  0.000063  (-0.000001 -0.000046  0.007948)
 33:    721.11   0.000153    0.77  0.000066  ( 0.008143 -0.000083  0.000004)
 34:    731.45   0.000745    3.77  0.000318  (-0.000029 -0.000026  0.017829)
 35:    742.64   0.001470    7.43  0.000618  (-0.000015 -0.000057  0.024850)
 36:    776.50   0.000075    0.38  0.000030  (-0.003768 -0.003971 -0.000035)
 37:    778.27   0.000754    3.81  0.000302  (-0.000012 -0.000071  0.017385)
 38:    793.68   0.000009    0.05  0.000004  (-0.000006 -0.000008 -0.001913)
 39:    857.82   0.002754   13.92  0.001002  (-0.000003 -0.000102  0.031653)
 40:    904.31   0.000683    3.45  0.000236  (-0.009703 -0.011903 -0.000039)
 41:    907.81   0.000341    1.72  0.000117  (-0.000969 -0.010786 -0.000037)
 42:    911.42   0.000131    0.66  0.000045  ( 0.000000  0.000044 -0.006687)
 43:    942.35   0.000599    3.02  0.000198  (-0.000007 -0.000027  0.014078)
 44:    950.21   0.001238    6.25  0.000406  ( 0.003193  0.019907  0.000057)
 45:    958.34   0.001148    5.80  0.000374  (-0.000001 -0.000041  0.019335)
 46:    999.92   0.000151    0.76  0.000047  (-0.000013 -0.000031  0.006870)
 47:   1025.62   0.000348    1.76  0.000106  (-0.007715  0.006819  0.000014)
 48:   1027.11   0.000010    0.05  0.000003  ( 0.001632 -0.000614  0.000002)
 49:   1066.54   0.000111    0.56  0.000032  (-0.001673 -0.005441 -0.000014)
 50:   1069.21   0.000073    0.37  0.000021  (-0.003176  0.003342  0.000008)
 51:   1104.06   0.000280    1.41  0.000079  (-0.008787 -0.001387 -0.000006)
 52:   1116.87   0.000481    2.43  0.000134  ( 0.001345 -0.011513 -0.000032)
 53:   1121.89   0.000039    0.20  0.000011  ( 0.000023 -0.000005 -0.003299)
 54:   1127.54   0.000041    0.20  0.000011  ( 0.000015  0.000021 -0.003350)
 55:   1131.51   0.002173   10.98  0.000599  (-0.014031 -0.020062 -0.000063)
 56:   1170.18   0.001319    6.66  0.000352  ( 0.012621 -0.013869 -0.000045)
 57:   1198.18   0.005228   26.42  0.001362  (-0.036868 -0.001563 -0.000006)
 58:   1217.19   0.011151   56.35  0.002859  ( 0.053381 -0.003051  0.000003)
 59:   1238.36   0.000007    0.04  0.000002  ( 0.000016  0.000019  0.001337)
 60:   1239.71   0.000012    0.06  0.000003  ( 0.000006  0.000017  0.001758)
 61:   1274.55   0.000001    0.01  0.000000  ( 0.000467  0.000340  0.000001)
 62:   1278.99   0.000207    1.05  0.000051  (-0.000801  0.007064  0.000020)
 63:   1297.33   0.000596    3.01  0.000143  ( 0.011961 -0.000463  0.000008)
 64:   1311.60   0.000025    0.13  0.000006  (-0.000001  0.000028  0.002431)
 65:   1314.30   0.000062    0.32  0.000015  ( 0.000009  0.000003  0.003847)
 66:   1330.98   0.000060    0.30  0.000014  ( 0.000006  0.000042 -0.003760)
 67:   1331.54   0.000110    0.56  0.000026  ( 0.000024  0.000026 -0.005085)
 68:   1338.94   0.006363   32.16  0.001483  ( 0.009488  0.037324  0.000099)
 69:   1357.45   0.000047    0.24  0.000011  ( 0.003180  0.000890  0.000003)
 70:   1372.24   0.003033   15.33  0.000690  (-0.003415 -0.026040 -0.000073)
 71:   1390.09   0.000414    2.09  0.000093  ( 0.006986 -0.006643 -0.000012)
 72:   1400.57   0.002795   14.12  0.000623  ( 0.005148 -0.024418 -0.000062)
 73:   1411.64   0.002108   10.65  0.000466  ( 0.014160 -0.016293 -0.000025)
 74:   1411.77   0.000442    2.24  0.000098  (-0.001786 -0.009726 -0.000031)
 75:   1419.18   0.002608   13.18  0.000573  (-0.010006 -0.021755 -0.000067)
 76:   1460.32   0.001470    7.43  0.000314  (-0.014688 -0.009923 -0.000033)
 77:   1475.66   0.000999    5.05  0.000211  ( 0.010569  0.009978  0.000035)
 78:   1490.10   0.002544   12.85  0.000533  ( 0.004370 -0.022662 -0.000055)
 79:   1490.62   0.000188    0.95  0.000039  (-0.000991  0.006198  0.000013)
 80:   1492.98   0.005939   30.02  0.001241  ( 0.008756 -0.034129 -0.000095)
 81:   1501.78   0.000006    0.03  0.000001  (-0.001010  0.000501  0.000001)
 82:   1502.53   0.001122    5.67  0.000233  (-0.004921  0.014452  0.000043)
 83:   1505.75   0.001967    9.94  0.000408  (-0.000027 -0.000047  0.020190)
 84:   1505.91   0.001957    9.89  0.000406  ( 0.000019  0.000038 -0.020138)
 85:   1515.63   0.000705    3.56  0.000145  ( 0.011306  0.004172  0.000016)
 86:   1515.90   0.003930   19.86  0.000809  ( 0.027126  0.008552  0.000040)
 87:   1561.12   0.010323   52.17  0.002064  (-0.039712 -0.022056 -0.000064)
 88:   1624.24   0.003899   19.70  0.000749  ( 0.027366 -0.000374  0.000001)
 89:   1969.29   0.023521  118.86  0.003727  ( 0.061031  0.001558  0.000012)
 90:   3002.24   0.000502    2.54  0.000052  (-0.007204  0.000540 -0.000006)
 91:   3002.48   0.001397    7.06  0.000145  (-0.011359 -0.004016 -0.000022)
 92:   3006.18   0.000530    2.68  0.000055  (-0.006462  0.003645  0.000005)
 93:   3015.35   0.003832   19.36  0.000397  (-0.019231 -0.005169 -0.000036)
 94:   3015.43   0.010233   51.71  0.001059  ( 0.031857  0.006641  0.000054)
 95:   3020.17   0.006736   34.04  0.000696  (-0.018144  0.019152  0.000027)
 96:   3022.37   0.006118   30.92  0.000632  ( 0.016019 -0.019366 -0.000031)
 97:   3026.01   0.003776   19.08  0.000389  ( 0.018944 -0.005522  0.000009)
 98:   3028.60   0.000743    3.75  0.000077  (-0.000001 -0.000026  0.008747)
 99:   3032.66   0.000189    0.95  0.000019  ( 0.000043 -0.000028  0.004404)
100:   3037.69   0.000035    0.18  0.000004  ( 0.000005 -0.000001  0.001890)
101:   3048.54   0.000429    2.17  0.000044  ( 0.000012 -0.000016  0.006625)
102:   3062.97   0.007100   35.88  0.000723  ( 0.000033  0.000073 -0.026896)
103:   3064.24   0.005725   28.93  0.000583  (-0.000033 -0.000057  0.024147)
104:   3088.78   0.012631   63.83  0.001276  ( 0.000049  0.000096 -0.035722)
105:   3091.50   0.011569   58.47  0.001168  (-0.000047 -0.000101  0.034174)
106:   3094.86   0.007591   38.36  0.000765  ( 0.019859  0.019261  0.000088)
107:   3095.83   0.007720   39.01  0.000778  ( 0.020812  0.018575  0.000086)
108:   3157.37   0.002703   13.66  0.000267  (-0.015505 -0.005168 -0.000016)
109:   3202.51   0.002543   12.85  0.000248  ( 0.011459 -0.010793 -0.000029)
110:   3212.94   0.000286    1.45  0.000028  (-0.002381 -0.004706 -0.000014)

--------------------------
THERMOCHEMISTRY AT 298.15K
--------------------------

Temperature         ... 298.15 K
Pressure            ... 1.00 atm
Total Mass          ... 213.34 AMU

Throughout the following assumptions are being made:
  (1) The electronic state is orbitally nondegenerate
      but the spin degeneracy is treated
  (2) There are no thermally accessible electronically excited states
  (3) Hindered rotations indicated by low frequency modes are not
      treated as such but are treated as vibrations and this may
      cause some error
  (4) All equations used are the standard statistical mechanics
      equations for an ideal gas
  (5) All vibrations are strictly harmonic

freq.      12.47  E(vib)   ...       0.57
freq.      22.98  E(vib)   ...       0.56
freq.      59.41  E(vib)   ...       0.51
freq.      59.63  E(vib)   ...       0.51
freq.      80.33  E(vib)   ...       0.49
freq.      83.90  E(vib)   ...       0.48
freq.     101.85  E(vib)   ...       0.46
freq.     110.96  E(vib)   ...       0.45
freq.     111.95  E(vib)   ...       0.45
freq.     126.37  E(vib)   ...       0.43
freq.     137.69  E(vib)   ...       0.42
freq.     208.07  E(vib)   ...       0.34
freq.     225.14  E(vib)   ...       0.33
freq.     227.07  E(vib)   ...       0.33
freq.     239.31  E(vib)   ...       0.31
freq.     242.36  E(vib)   ...       0.31
freq.     291.32  E(vib)   ...       0.27
freq.     309.51  E(vib)   ...       0.26
freq.     331.43  E(vib)   ...       0.24
freq.     429.98  E(vib)   ...       0.18
freq.     444.16  E(vib)   ...       0.17
freq.     445.90  E(vib)   ...       0.17
freq.     483.78  E(vib)   ...       0.15
freq.     537.46  E(vib)   ...       0.12
freq.     540.37  E(vib)   ...       0.12
freq.     592.19  E(vib)   ...       0.10
freq.     692.86  E(vib)   ...       0.07
freq.     721.11  E(vib)   ...       0.07
freq.     731.45  E(vib)   ...       0.06
freq.     742.64  E(vib)   ...       0.06
freq.     776.50  E(vib)   ...       0.05
freq.     778.27  E(vib)   ...       0.05
freq.     793.68  E(vib)   ...       0.05
freq.     857.82  E(vib)   ...       0.04
freq.     904.31  E(vib)   ...       0.03
freq.     907.81  E(vib)   ...       0.03
freq.     911.42  E(vib)   ...       0.03
freq.     942.35  E(vib)   ...       0.03
freq.     950.21  E(vib)   ...       0.03
freq.     958.34  E(vib)   ...       0.03
freq.     999.92  E(vib)   ...       0.02
freq.    1025.62  E(vib)   ...       0.02
freq.    1027.11  E(vib)   ...       0.02
freq.    1066.54  E(vib)   ...       0.02
freq.    1069.21  E(vib)   ...       0.02
freq.    1104.06  E(vib)   ...       0.02
freq.    1116.87  E(vib)   ...       0.01
freq.    1121.89  E(vib)   ...       0.01
freq.    1127.54  E(vib)   ...       0.01
freq.    1131.51  E(vib)   ...       0.01
freq.    1170.18  E(vib)   ...       0.01
freq.    1198.18  E(vib)   ...       0.01
freq.    1217.19  E(vib)   ...       0.01
freq.    1238.36  E(vib)   ...       0.01
freq.    1239.71  E(vib)   ...       0.01
freq.    1274.55  E(vib)   ...       0.01
freq.    1278.99  E(vib)   ...       0.01
freq.    1297.33  E(vib)   ...       0.01
freq.    1311.60  E(vib)   ...       0.01
freq.    1314.30  E(vib)   ...       0.01
freq.    1330.98  E(vib)   ...       0.01
freq.    1331.54  E(vib)   ...       0.01
freq.    1338.94  E(vib)   ...       0.01
freq.    1357.45  E(vib)   ...       0.01
freq.    1372.24  E(vib)   ...       0.01
freq.    1390.09  E(vib)   ...       0.00
freq.    1400.57  E(vib)   ...       0.00
freq.    1411.64  E(vib)   ...       0.00
freq.    1411.77  E(vib)   ...       0.00
freq.    1419.18  E(vib)   ...       0.00
freq.    1460.32  E(vib)   ...       0.00
freq.    1475.66  E(vib)   ...       0.00
freq.    1490.10  E(vib)   ...       0.00
freq.    1490.62  E(vib)   ...       0.00
freq.    1492.98  E(vib)   ...       0.00
freq.    1501.78  E(vib)   ...       0.00
freq.    1502.53  E(vib)   ...       0.00
freq.    1505.75  E(vib)   ...       0.00
freq.    1505.91  E(vib)   ...       0.00
freq.    1515.63  E(vib)   ...       0.00
freq.    1515.90  E(vib)   ...       0.00
freq.    1561.12  E(vib)   ...       0.00
freq.    1624.24  E(vib)   ...       0.00
freq.    1969.29  E(vib)   ...       0.00
freq.    3002.24  E(vib)   ...       0.00
freq.    3002.48  E(vib)   ...       0.00
freq.    3006.18  E(vib)   ...       0.00
freq.    3015.35  E(vib)   ...       0.00
freq.    3015.43  E(vib)   ...       0.00
freq.    3020.17  E(vib)   ...       0.00
freq.    3022.37  E(vib)   ...       0.00
freq.    3026.01  E(vib)   ...       0.00
freq.    3028.60  E(vib)   ...       0.00
freq.    3032.66  E(vib)   ...       0.00
freq.    3037.69  E(vib)   ...       0.00
freq.    3048.54  E(vib)   ...       0.00
freq.    3062.97  E(vib)   ...       0.00
freq.    3064.24  E(vib)   ...       0.00
freq.    3088.78  E(vib)   ...       0.00
freq.    3091.50  E(vib)   ...       0.00
freq.    3094.86  E(vib)   ...       0.00
freq.    3095.83  E(vib)   ...       0.00
freq.    3157.37  E(vib)   ...       0.00
freq.    3202.51  E(vib)   ...       0.00
freq.    3212.94  E(vib)   ...       0.00

------------
INNER ENERGY
------------

The inner energy is: U= E(el) + E(ZPE) + E(vib) + E(rot) + E(trans)
    E(el)   - is the total energy from the electronic structure calculation
              = E(kin-el) + E(nuc-el) + E(el-el) + E(nuc-nuc)
    E(ZPE)  - the the zero temperature vibrational energy from the frequency calculation
    E(vib)  - the the finite temperature correction to E(ZPE) due to population
              of excited vibrational states
    E(rot)  - is the rotational thermal energy
    E(trans)- is the translational thermal energy

Summary of contributions to the inner energy U:
Electronic energy                ...   -621.86692302 Eh
Zero point energy                ...      0.32158596 Eh     201.80 kcal/mol
Thermal vibrational correction   ...      0.01548844 Eh       9.72 kcal/mol
Thermal rotational correction    ...      0.00141627 Eh       0.89 kcal/mol
Thermal translational correction ...      0.00141627 Eh       0.89 kcal/mol
-----------------------------------------------------------------------
Total thermal energy                   -621.52701607 Eh

Summary of corrections to the electronic energy:
(perhaps to be used in another calculation)
Total thermal correction                  0.01832098 Eh      11.50 kcal/mol
Non-thermal (ZPE) correction              0.32158596 Eh     201.80 kcal/mol
-----------------------------------------------------------------------
Total correction                          0.33990695 Eh     213.29 kcal/mol

--------
ENTHALPY
--------

The enthalpy is H = U + kB*T
                kB is Boltzmann's constant

Rotational constants in cm-1:     0.041061     0.005947     0.005234

                             ****ORCA TERMINATED NORMALLY****
TOTAL RUN TIME: 0 days 0 hours 18 minutes 55 seconds 410 msec
