                         Program Version 4.2.1 -  RELEASE  -
|  1> ! B3LYP cc-pVDZ AUTOAUX
|  2> %pal nprocs 16 end
|  3> *XYZFile 0 2 opt.xyz
|  4> %EPRNMR
|  5>         GTENSOR   TRUE
|  6>         NUCLEI    = ALL H {AISO, ADIP, AORB}
|  7> END
|  8>
|  9>                          ****END OF INPUT****

CARTESIAN COORDINATES (ANGSTROEM)
---------------------------------
  C     12.367592   -0.025121   -0.005055
  C     11.143516   -0.065571   -0.003091
  C      5.469965    0.000164   -0.000860
  C      9.724428   -0.085636   -0.001988
  C      8.990947   -1.332264   -0.004597
  C      7.571180   -1.234603   -0.004335
  C      6.897570   -0.010526   -0.001156
  C      7.633835    1.219230    0.001830
  C      9.025636    1.138500    0.001412
  H      6.976365   -2.148083   -0.006442
  H      9.618395    2.053009    0.003336
  C      9.648268   -2.580728   -0.006648
  H     10.741775   -2.570134   -0.006087
  C      8.962822   -3.914226   -0.008547
  H      8.289115   -3.996019    0.869672
  H      8.289579   -3.993943   -0.887314
  C      9.934837   -5.100882   -0.009597
  H     10.595360   -5.023915   -0.892993
  H     10.595356   -5.025429    0.873929
  C      9.227340   -6.456809   -0.010736
  H      8.583968   -6.572870   -0.900262
  H      8.584084   -6.574381    0.878675
  C      6.886556    2.536546    0.004661
  H      6.207286    2.549836   -0.868804
  H      6.210054    2.547844    0.880332
  C      7.730810    3.813338    0.004708
  H      8.395334    3.824131    0.888791
  H      8.393542    3.825194   -0.880701
  C      6.875218    5.085593    0.006284
  H      6.207746    5.076437   -0.875929
  H      6.209688    5.075624    0.889957
  C      7.706740    6.370139    0.005945
  H      8.357126    6.426652   -0.884294
  H      8.359148    6.425867    0.894756
  C      4.247408    0.005293    0.000069
  H      9.950429   -7.288043   -0.011486
  H      7.065522    7.266267    0.007061
  C      2.821725    0.006250    0.000155
  C      2.098345   -1.207100   -0.026231
  C      0.708294   -1.205940   -0.026298
  C     -0.010828    0.007844    0.000149
  C      0.709640    1.220907    0.026632
  C      2.099585    1.220396    0.026604
  H     -3.729805    0.011363    0.000138
  H      0.162122    2.164869    0.047653
  H      2.644831   -2.151614   -0.047263
  H      2.646650    2.164662    0.047708
  H      0.159786   -2.149317   -0.047298
  C     13.789982    0.030865   -0.006241
  C     14.563398   -1.152339   -0.033105
  C     15.951874   -1.094939   -0.034266
  C     16.621636    0.147027   -0.008504
  C     15.852075    1.329913    0.018385
  C     14.463678    1.273734    0.019439
  H     20.337203    0.302453   -0.011733
  H     16.361455    2.295067    0.038832
  H     14.057010   -2.119043   -0.053804
  H     13.878704    2.194834    0.040783
  H     16.537579   -2.015637   -0.055623
  C     18.051053    0.206171   -0.009795
  C     19.265622    0.256760   -0.010806
  C     -1.441726    0.008893    0.000141
  C     -2.657216    0.010219    0.000143

 Total Charge           Charge          ....    0
 Multiplicity           Mult            ....    2
 Number of Electrons    NEL             ....  233
 Basis Dimension        Dim             ....  621

ORBITAL ENERGIES
----------------
                 SPIN UP ORBITALS
  NO   OCC          E(Eh)            E(eV)
   0   1.0000     -10.223752      -278.2024
   1   1.0000     -10.222581      -278.1706
   2   1.0000     -10.222006      -278.1549
   3   1.0000     -10.221065      -278.1293
   4   1.0000     -10.217649      -278.0364
   5   1.0000     -10.215613      -277.9810
   6   1.0000     -10.205839      -277.7150
   7   1.0000     -10.204292      -277.6729
   8   1.0000     -10.204206      -277.6706
   9   1.0000     -10.203680      -277.6563
  10   1.0000     -10.203545      -277.6526
  11   1.0000     -10.202735      -277.6305
  12   1.0000     -10.202577      -277.6262
  13   1.0000     -10.202228      -277.6167
  14   1.0000     -10.202024      -277.6112
  15   1.0000     -10.201801      -277.6051
  16   1.0000     -10.198162      -277.5061
  17   1.0000     -10.196316      -277.4559
  18   1.0000     -10.195595      -277.4362
  19   1.0000     -10.195056      -277.4216
  20   1.0000     -10.194219      -277.3988
  21   1.0000     -10.193890      -277.3899
  22   1.0000     -10.193225      -277.3717
  23   1.0000     -10.192915      -277.3633
  24   1.0000     -10.191871      -277.3349
  25   1.0000     -10.191265      -277.3184
  26   1.0000     -10.190891      -277.3082
  27   1.0000     -10.190281      -277.2916
  28   1.0000     -10.189618      -277.2736
  29   1.0000     -10.186843      -277.1981
  30   1.0000     -10.184669      -277.1389
  31   1.0000     -10.184368      -277.1307
  32   1.0000     -10.179373      -276.9948
  33   1.0000     -10.177782      -276.9515
  34   1.0000      -0.877864       -23.8879
  35   1.0000      -0.875376       -23.8202
  36   1.0000      -0.873895       -23.7799
  37   1.0000      -0.824204       -22.4277
  38   1.0000      -0.809061       -22.0157
  39   1.0000      -0.806163       -21.9368
  40   1.0000      -0.799110       -21.7449
  41   1.0000      -0.793146       -21.5826
  42   1.0000      -0.771116       -20.9831
  43   1.0000      -0.759726       -20.6732
  44   1.0000      -0.758675       -20.6446
  45   1.0000      -0.758375       -20.6364
  46   1.0000      -0.746253       -20.3066
  47   1.0000      -0.737093       -20.0573
  48   1.0000      -0.725995       -19.7553
  49   1.0000      -0.712927       -19.3997
  50   1.0000      -0.700541       -19.0627
  51   1.0000      -0.660780       -17.9807
  52   1.0000      -0.658133       -17.9087
  53   1.0000      -0.642309       -17.4781
  54   1.0000      -0.623358       -16.9624
  55   1.0000      -0.619270       -16.8512
  56   1.0000      -0.618689       -16.8354
  57   1.0000      -0.617672       -16.8077
  58   1.0000      -0.594986       -16.1904
  59   1.0000      -0.582995       -15.8641
  60   1.0000      -0.564821       -15.3696
  61   1.0000      -0.553271       -15.0553
  62   1.0000      -0.551964       -15.0197
  63   1.0000      -0.542768       -14.7695
  64   1.0000      -0.534275       -14.5384
  65   1.0000      -0.510502       -13.8915
  66   1.0000      -0.507323       -13.8050
  67   1.0000      -0.496978       -13.5235
  68   1.0000      -0.492432       -13.3998
  69   1.0000      -0.482334       -13.1250
  70   1.0000      -0.473645       -12.8885
  71   1.0000      -0.473237       -12.8774
  72   1.0000      -0.471528       -12.8309
  73   1.0000      -0.465188       -12.6584
  74   1.0000      -0.445669       -12.1273
  75   1.0000      -0.444062       -12.0835
  76   1.0000      -0.436363       -11.8741
  77   1.0000      -0.432712       -11.7747
  78   1.0000      -0.431241       -11.7347
  79   1.0000      -0.429814       -11.6958
  80   1.0000      -0.429053       -11.6751
  81   1.0000      -0.424869       -11.5613
  82   1.0000      -0.414572       -11.2811
  83   1.0000      -0.402025       -10.9396
  84   1.0000      -0.401809       -10.9338
  85   1.0000      -0.394672       -10.7396
  86   1.0000      -0.393716       -10.7136
  87   1.0000      -0.386290       -10.5115
  88   1.0000      -0.385245       -10.4830
  89   1.0000      -0.382111       -10.3978
  90   1.0000      -0.381726       -10.3873
  91   1.0000      -0.368211       -10.0195
  92   1.0000      -0.361235        -9.8297
  93   1.0000      -0.360300        -9.8042
  94   1.0000      -0.359129        -9.7724
  95   1.0000      -0.358270        -9.7490
  96   1.0000      -0.345071        -9.3899
  97   1.0000      -0.343331        -9.3425
  98   1.0000      -0.336089        -9.1454
  99   1.0000      -0.335564        -9.1312
 100   1.0000      -0.331398        -9.0178
 101   1.0000      -0.330580        -8.9955
 102   1.0000      -0.327111        -8.9011
 103   1.0000      -0.325931        -8.8690
 104   1.0000      -0.312085        -8.4923
 105   1.0000      -0.285626        -7.7723
 106   1.0000      -0.280114        -7.6223
 107   1.0000      -0.278800        -7.5865
 108   1.0000      -0.275167        -7.4877
 109   1.0000      -0.273349        -7.4382
 110   1.0000      -0.271640        -7.3917
 111   1.0000      -0.266759        -7.2589
 112   1.0000      -0.265919        -7.2360
 113   1.0000      -0.260141        -7.0788
 114   1.0000      -0.230306        -6.2669
 115   1.0000      -0.209708        -5.7064
 116   1.0000      -0.173921        -4.7326
 117   0.0000      -0.076441        -2.0801
 118   0.0000      -0.049484        -1.3465
 119   0.0000      -0.016539        -0.4501
 120   0.0000      -0.015343        -0.4175
 121   0.0000      -0.014498        -0.3945

                 SPIN DOWN ORBITALS
  NO   OCC          E(Eh)            E(eV)
   0   1.0000     -10.223615      -278.1987
   1   1.0000     -10.222725      -278.1745
   2   1.0000     -10.222377      -278.1650
   3   1.0000     -10.220631      -278.1175
   4   1.0000     -10.217147      -278.0227
   5   1.0000     -10.214332      -277.9461
   6   1.0000     -10.204286      -277.6727
   7   1.0000     -10.204217      -277.6709
   8   1.0000     -10.204189      -277.6701
   9   1.0000     -10.203759      -277.6584
  10   1.0000     -10.203635      -277.6550
  11   1.0000     -10.202766      -277.6314
  12   1.0000     -10.202690      -277.6293
  13   1.0000     -10.202509      -277.6244
  14   1.0000     -10.202016      -277.6110
  15   1.0000     -10.201732      -277.6032
  16   1.0000     -10.195564      -277.4354
  17   1.0000     -10.195127      -277.4235
  18   1.0000     -10.195067      -277.4219
  19   1.0000     -10.194751      -277.4133
  20   1.0000     -10.194334      -277.4019
  21   1.0000     -10.193987      -277.3925
  22   1.0000     -10.193071      -277.3676
  23   1.0000     -10.191932      -277.3366
  24   1.0000     -10.191347      -277.3206
  25   1.0000     -10.190958      -277.3101
  26   1.0000     -10.190478      -277.2970
  27   1.0000     -10.189402      -277.2677
  28   1.0000     -10.186805      -277.1971
  29   1.0000     -10.186485      -277.1884
  30   1.0000     -10.184666      -277.1388
  31   1.0000     -10.184368      -277.1307
  32   1.0000     -10.179380      -276.9950
  33   1.0000     -10.177784      -276.9516
  34   1.0000      -0.876367       -23.8472
  35   1.0000      -0.874535       -23.7973
  36   1.0000      -0.872647       -23.7459
  37   1.0000      -0.819869       -22.3098
  38   1.0000      -0.807831       -21.9822
  39   1.0000      -0.805386       -21.9157
  40   1.0000      -0.797134       -21.6911
  41   1.0000      -0.792098       -21.5541
  42   1.0000      -0.769117       -20.9287
  43   1.0000      -0.759852       -20.6766
  44   1.0000      -0.758243       -20.6328
  45   1.0000      -0.758047       -20.6275
  46   1.0000      -0.745709       -20.2918
  47   1.0000      -0.733873       -19.9697
  48   1.0000      -0.724834       -19.7237
  49   1.0000      -0.711940       -19.3729
  50   1.0000      -0.698361       -19.0034
  51   1.0000      -0.659235       -17.9387
  52   1.0000      -0.655735       -17.8435
  53   1.0000      -0.642041       -17.4708
  54   1.0000      -0.622065       -16.9273
  55   1.0000      -0.619349       -16.8533
  56   1.0000      -0.617529       -16.8038
  57   1.0000      -0.613553       -16.6956
  58   1.0000      -0.594090       -16.1660
  59   1.0000      -0.581433       -15.8216
  60   1.0000      -0.562092       -15.2953
  61   1.0000      -0.553340       -15.0571
  62   1.0000      -0.551721       -15.0131
  63   1.0000      -0.542165       -14.7530
  64   1.0000      -0.533409       -14.5148
  65   1.0000      -0.507672       -13.8145
  66   1.0000      -0.506293       -13.7769
  67   1.0000      -0.496627       -13.5139
  68   1.0000      -0.491660       -13.3787
  69   1.0000      -0.480968       -13.0878
  70   1.0000      -0.473245       -12.8777
  71   1.0000      -0.472797       -12.8655
  72   1.0000      -0.471303       -12.8248
  73   1.0000      -0.461729       -12.5643
  74   1.0000      -0.445632       -12.1263
  75   1.0000      -0.443859       -12.0780
  76   1.0000      -0.434289       -11.8176
  77   1.0000      -0.431411       -11.7393
  78   1.0000      -0.431261       -11.7352
  79   1.0000      -0.429698       -11.6927
  80   1.0000      -0.427875       -11.6431
  81   1.0000      -0.422294       -11.4912
  82   1.0000      -0.414089       -11.2679
  83   1.0000      -0.401000       -10.9118
  84   1.0000      -0.396274       -10.7832
  85   1.0000      -0.394168       -10.7259
  86   1.0000      -0.391075       -10.6417
  87   1.0000      -0.386382       -10.5140
  88   1.0000      -0.384840       -10.4720
  89   1.0000      -0.379512       -10.3270
  90   1.0000      -0.378637       -10.3032
  91   1.0000      -0.367100        -9.9893
  92   1.0000      -0.361139        -9.8271
  93   1.0000      -0.359823        -9.7913
  94   1.0000      -0.358624        -9.7586
  95   1.0000      -0.355271        -9.6674
  96   1.0000      -0.344634        -9.3780
  97   1.0000      -0.341115        -9.2822
  98   1.0000      -0.335064        -9.1175
  99   1.0000      -0.333983        -9.0881
 100   1.0000      -0.330241        -8.9863
 101   1.0000      -0.329867        -8.9761
 102   1.0000      -0.326356        -8.8806
 103   1.0000      -0.325580        -8.8595
 104   1.0000      -0.310005        -8.4357
 105   1.0000      -0.282359        -7.6834
 106   1.0000      -0.280142        -7.6230
 107   1.0000      -0.278698        -7.5838
 108   1.0000      -0.273214        -7.4345
 109   1.0000      -0.271230        -7.3806
 110   1.0000      -0.267122        -7.2688
 111   1.0000      -0.264985        -7.2106
 112   1.0000      -0.262301        -7.1376
 113   1.0000      -0.257544        -7.0081
 114   1.0000      -0.228908        -6.2289
 115   1.0000      -0.202932        -5.5221
 116   0.0000      -0.091599        -2.4925
 117   0.0000      -0.067802        -1.8450
 118   0.0000      -0.047526        -1.2933
 119   0.0000      -0.016848        -0.4585
 120   0.0000      -0.014562        -0.3962

MULLIKEN ATOMIC CHARGES AND SPIN POPULATIONS
--------------------------------------------
   0 C :    0.182656    0.097829
   1 C :    0.250868   -0.065363
   2 C :    0.237013    0.028590
   3 C :   -0.188296    0.220286
   4 C :    0.068039   -0.167299
   5 C :   -0.023075    0.217513
   6 C :   -0.154276   -0.103203
   7 C :   -0.089864    0.229083
   8 C :    0.014139   -0.115174
   9 H :   -0.050565   -0.008890
  10 H :   -0.051737    0.004090
  11 C :   -0.100508    0.694982
  12 H :   -0.023328   -0.030263
  13 C :    0.032402   -0.047577
  14 H :    0.030017    0.031113
  15 H :    0.029969    0.031107
  16 C :   -0.041009    0.002174
  17 H :    0.012753    0.000495
  18 H :    0.012887    0.000494
  19 C :    0.005641   -0.000145
  20 H :    0.017676    0.000150
  21 H :    0.017726    0.000150
  22 C :    0.036991   -0.018199
  23 H :    0.033691    0.009753
  24 H :    0.033626    0.009795
  25 C :   -0.037335    0.000843
  26 H :    0.017455    0.000164
  27 H :    0.017446    0.000167
  28 C :   -0.024209    0.000029
  29 H :    0.006000    0.000055
  30 H :    0.005826    0.000055
  31 C :    0.003683   -0.000078
  32 H :    0.017347    0.000023
  33 H :    0.017322    0.000023
  34 C :    0.174541   -0.043883
  35 H :    0.015443   -0.000199
  36 H :    0.012545   -0.000005
  37 C :   -0.246484    0.009871
  38 C :    0.037145   -0.009587
  39 C :    0.049093    0.004919
  40 C :   -0.107301   -0.010149
  41 C :    0.048629    0.004911
  42 C :    0.035048   -0.009556
  43 H :   -0.020000    0.000201
  44 H :   -0.032481   -0.000163
  45 H :   -0.035445    0.000366
  46 H :   -0.034532    0.000336
  47 H :   -0.032327   -0.000163
  48 C :   -0.250450   -0.024863
  49 C :    0.029668    0.026131
  50 C :    0.050406   -0.014692
  51 C :   -0.107065    0.028833
  52 C :    0.047348   -0.014691
  53 C :    0.038835    0.026225
  54 H :   -0.020774   -0.000682
  55 H :   -0.032678    0.000562
  56 H :   -0.034075   -0.001049
  57 H :   -0.036326   -0.001112
  58 H :   -0.033774    0.000562
  59 C :    0.625371   -0.009419
  60 C :   -0.542009    0.017406
  61 C :    0.624830    0.002881
  62 C :   -0.540150   -0.005759
Sum of atomic charges         :   -0.0000000

LOEWDIN ATOMIC CHARGES AND SPIN POPULATIONS
-------------------------------------------
   0 C :   -0.023451    0.071302
   1 C :   -0.012919   -0.029483
   2 C :   -0.011498    0.014987
   3 C :   -0.039234    0.157881
   4 C :   -0.039054   -0.070995
   5 C :    0.011514    0.164565
   6 C :   -0.052665   -0.057285
   7 C :   -0.004634    0.169300
   8 C :   -0.007056   -0.062680
   9 H :    0.028812    0.000948
  10 H :    0.030270   -0.000488
  11 C :    0.013093    0.569802
  12 H :    0.021768    0.003422
  13 C :   -0.054493    0.005462
  14 H :    0.034838    0.024310
  15 H :    0.034812    0.024308
  16 C :   -0.046292    0.001143
  17 H :    0.025631    0.000307
  18 H :    0.025684    0.000307
  19 C :   -0.067488   -0.000026
  20 H :    0.025727    0.000246
  21 H :    0.025744    0.000247
  22 C :   -0.036070    0.002139
  23 H :    0.039304    0.007676
  24 H :    0.039232    0.007708
  25 C :   -0.043919    0.000151
  26 H :    0.024750    0.000052
  27 H :    0.024783    0.000053
  28 C :   -0.047163    0.000021
  29 H :    0.023951    0.000090
  30 H :    0.023892    0.000090
  31 C :   -0.067151   -0.000037
  32 H :    0.025389    0.000016
  33 H :    0.025373    0.000016
  34 C :   -0.023480   -0.031547
  35 H :    0.029019   -0.000109
  36 H :    0.027717   -0.000007
  37 C :   -0.049249    0.004566
  38 C :    0.000626   -0.007437
  39 C :    0.001564    0.002983
  40 C :   -0.051930   -0.007573
  41 C :    0.001457    0.002978
  42 C :   -0.000332   -0.007423
  43 H :    0.023908   -0.000026
  44 H :    0.033957    0.000030
  45 H :    0.032897   -0.000032
  46 H :    0.032782   -0.000038
  47 H :    0.034016    0.000030
  48 C :   -0.049236   -0.011701
  49 C :   -0.001451    0.019988
  50 C :    0.001255   -0.008956
  51 C :   -0.052878    0.021137
  52 C :    0.001009   -0.008941
  53 C :    0.000279    0.020057
  54 H :    0.023625    0.000040
  55 H :    0.033814   -0.000050
  56 H :    0.032213    0.000039
  57 H :    0.032615    0.000035
  58 H :    0.033696   -0.000051
  59 C :   -0.007094   -0.003940
  60 C :   -0.043285    0.013973
  61 C :   -0.006993    0.001116
  62 C :   -0.041999   -0.004696

  Mayer bond orders larger than 0.100000
B(  0-C ,  1-C ) :   1.6893 B(  0-C ,  3-C ) :  -0.1096 B(  0-C , 48-C ) :   0.9160
B(  1-C ,  3-C ) :   0.8863 B(  1-C , 48-C ) :  -0.1800 B(  2-C ,  6-C ) :   0.8847
B(  2-C , 34-C ) :   1.7301 B(  2-C , 37-C ) :  -0.1728 B(  3-C ,  4-C ) :   1.2796
B(  3-C ,  8-C ) :   1.3898 B(  3-C , 48-C ) :   0.1064 B(  4-C ,  5-C ) :   1.2947
B(  4-C , 11-C ) :   1.3816 B(  5-C ,  6-C ) :   1.4418 B(  5-C ,  9-H ) :   0.9201
B(  6-C ,  7-C ) :   1.3439 B(  6-C , 34-C ) :  -0.1093 B(  7-C ,  8-C ) :   1.4344
B(  7-C , 22-C ) :   1.0969 B(  8-C , 10-H ) :   0.9220 B( 11-C , 12-H ) :   0.8999
B( 11-C , 13-C ) :   1.0835 B( 13-C , 14-H ) :   0.9119 B( 13-C , 15-H ) :   0.9119
B( 13-C , 16-C ) :   1.0711 B( 16-C , 17-H ) :   0.9442 B( 16-C , 18-H ) :   0.9442
B( 16-C , 19-C ) :   1.1057 B( 19-C , 20-H ) :   0.9654 B( 19-C , 21-H ) :   0.9654
B( 19-C , 35-H ) :   0.9612 B( 22-C , 23-H ) :   0.8960 B( 22-C , 24-H ) :   0.8959
B( 22-C , 25-C ) :   1.1030 B( 25-C , 26-H ) :   0.9295 B( 25-C , 27-H ) :   0.9295
B( 25-C , 28-C ) :   1.0737 B( 28-C , 29-H ) :   0.9416 B( 28-C , 30-H ) :   0.9416
B( 28-C , 31-C ) :   1.1041 B( 31-C , 32-H ) :   0.9665 B( 31-C , 33-H ) :   0.9665
B( 31-C , 36-H ) :   0.9626 B( 34-C , 37-C ) :   0.9118 B( 37-C , 38-C ) :   1.4239
B( 37-C , 42-C ) :   1.4186 B( 38-C , 39-C ) :   1.4735 B( 38-C , 45-H ) :   0.9383
B( 39-C , 40-C ) :   1.4084 B( 39-C , 47-H ) :   0.9380 B( 40-C , 41-C ) :   1.4083
B( 40-C , 61-C ) :   0.9104 B( 41-C , 42-C ) :   1.4741 B( 41-C , 44-H ) :   0.9379
B( 42-C , 46-H ) :   0.9387 B( 43-H , 62-C ) :   1.0977 B( 48-C , 49-C ) :   1.4175
B( 48-C , 53-C ) :   1.4180 B( 49-C , 50-C ) :   1.4757 B( 49-C , 56-H ) :   0.9388
B( 50-C , 51-C ) :   1.4048 B( 50-C , 58-H ) :   0.9382 B( 51-C , 52-C ) :   1.4075
B( 51-C , 59-C ) :   0.9111 B( 52-C , 53-C ) :   1.4763 B( 52-C , 55-H ) :   0.9379
B( 53-C , 57-H ) :   0.9384 B( 54-H , 60-C ) :   1.0983 B( 59-C , 60-C ) :   2.2033
B( 61-C , 62-C ) :   2.2060

FINAL SINGLE POINT ENERGY     -1312.048754604323

DIPOLE MOMENT
-------------
                                X             Y             Z
Electronic contribution:      0.39311      -1.98426      -0.01118
Nuclear contribution   :     -0.55926       1.94057       0.01127
                        -----------------------------------------
Total Dipole Moment    :     -0.16615      -0.04370       0.00009
                        -----------------------------------------
Magnitude (a.u.)       :      0.17180
Magnitude (Debye)      :      0.43667

Rotational constants in cm-1:     0.005924     0.001229     0.001019
Rotational constants in MHz :   177.589203    36.830758    30.545228

                             ****ORCA TERMINATED NORMALLY****
TOTAL RUN TIME: 0 days 1 hours 35 minutes 22 seconds 568 msec
