                         Program Version 4.2.1 -  RELEASE  -
|  1> ! B3LYP EPR-II AUTOAUX
|  2> %pal nprocs 16 end
|  3> *XYZFile 0 2 opt.xyz
|  4> %EPRNMR
|  5>         GTENSOR   TRUE
|  6>         NUCLEI    = ALL H {AISO, ADIP, AORB}
|  7> END
|  8>
|  9>                          ****END OF INPUT****

CARTESIAN COORDINATES (ANGSTROEM)
---------------------------------
  C     12.367592   -0.025121   -0.005055
  C     11.143516   -0.065571   -0.003091
  C      5.469965    0.000164   -0.000860
  C      9.724428   -0.085636   -0.001988
  C      8.990947   -1.332264   -0.004597
  C      7.571180   -1.234603   -0.004335
  C      6.897570   -0.010526   -0.001156
  C      7.633835    1.219230    0.001830
  C      9.025636    1.138500    0.001412
  H      6.976365   -2.148083   -0.006442
  H      9.618395    2.053009    0.003336
  C      9.648268   -2.580728   -0.006648
  H     10.741775   -2.570134   -0.006087
  C      8.962822   -3.914226   -0.008547
  H      8.289115   -3.996019    0.869672
  H      8.289579   -3.993943   -0.887314
  C      9.934837   -5.100882   -0.009597
  H     10.595360   -5.023915   -0.892993
  H     10.595356   -5.025429    0.873929
  C      9.227340   -6.456809   -0.010736
  H      8.583968   -6.572870   -0.900262
  H      8.584084   -6.574381    0.878675
  C      6.886556    2.536546    0.004661
  H      6.207286    2.549836   -0.868804
  H      6.210054    2.547844    0.880332
  C      7.730810    3.813338    0.004708
  H      8.395334    3.824131    0.888791
  H      8.393542    3.825194   -0.880701
  C      6.875218    5.085593    0.006284
  H      6.207746    5.076437   -0.875929
  H      6.209688    5.075624    0.889957
  C      7.706740    6.370139    0.005945
  H      8.357126    6.426652   -0.884294
  H      8.359148    6.425867    0.894756
  C      4.247408    0.005293    0.000069
  H      9.950429   -7.288043   -0.011486
  H      7.065522    7.266267    0.007061
  C      2.821725    0.006250    0.000155
  C      2.098345   -1.207100   -0.026231
  C      0.708294   -1.205940   -0.026298
  C     -0.010828    0.007844    0.000149
  C      0.709640    1.220907    0.026632
  C      2.099585    1.220396    0.026604
  H     -3.729805    0.011363    0.000138
  H      0.162122    2.164869    0.047653
  H      2.644831   -2.151614   -0.047263
  H      2.646650    2.164662    0.047708
  H      0.159786   -2.149317   -0.047298
  C     13.789982    0.030865   -0.006241
  C     14.563398   -1.152339   -0.033105
  C     15.951874   -1.094939   -0.034266
  C     16.621636    0.147027   -0.008504
  C     15.852075    1.329913    0.018385
  C     14.463678    1.273734    0.019439
  H     20.337203    0.302453   -0.011733
  H     16.361455    2.295067    0.038832
  H     14.057010   -2.119043   -0.053804
  H     13.878704    2.194834    0.040783
  H     16.537579   -2.015637   -0.055623
  C     18.051053    0.206171   -0.009795
  C     19.265622    0.256760   -0.010806
  C     -1.441726    0.008893    0.000141
  C     -2.657216    0.010219    0.000143

 Total Charge           Charge          ....    0
 Multiplicity           Mult            ....    2
 Number of Electrons    NEL             ....  233
 Basis Dimension        Dim             ....  781

ORBITAL ENERGIES
----------------
                 SPIN UP ORBITALS
  NO   OCC          E(Eh)            E(eV)
   0   1.0000     -10.235494      -278.5219
   1   1.0000     -10.235072      -278.5105
   2   1.0000     -10.233738      -278.4742
   3   1.0000     -10.233488      -278.4674
   4   1.0000     -10.227423      -278.3023
   5   1.0000     -10.225565      -278.2518
   6   1.0000     -10.214986      -277.9639
   7   1.0000     -10.213474      -277.9228
   8   1.0000     -10.213390      -277.9205
   9   1.0000     -10.212548      -277.8976
  10   1.0000     -10.212395      -277.8934
  11   1.0000     -10.211960      -277.8816
  12   1.0000     -10.211817      -277.8777
  13   1.0000     -10.211673      -277.8738
  14   1.0000     -10.211500      -277.8690
  15   1.0000     -10.211131      -277.8590
  16   1.0000     -10.210847      -277.8513
  17   1.0000     -10.210063      -277.8299
  18   1.0000     -10.208118      -277.7770
  19   1.0000     -10.206976      -277.7459
  20   1.0000     -10.205863      -277.7156
  21   1.0000     -10.205323      -277.7010
  22   1.0000     -10.204761      -277.6857
  23   1.0000     -10.203513      -277.6517
  24   1.0000     -10.202560      -277.6258
  25   1.0000     -10.202174      -277.6153
  26   1.0000     -10.200279      -277.5637
  27   1.0000     -10.193383      -277.3760
  28   1.0000     -10.191771      -277.3322
  29   1.0000     -10.188363      -277.2394
  30   1.0000     -10.185811      -277.1700
  31   1.0000     -10.185434      -277.1598
  32   1.0000     -10.177749      -276.9506
  33   1.0000     -10.175803      -276.8977
  34   1.0000      -0.878132       -23.8952
  35   1.0000      -0.876276       -23.8447
  36   1.0000      -0.874712       -23.8021
  37   1.0000      -0.823893       -22.4193
  38   1.0000      -0.809836       -22.0368
  39   1.0000      -0.807609       -21.9761
  40   1.0000      -0.797862       -21.7109
  41   1.0000      -0.793758       -21.5992
  42   1.0000      -0.770250       -20.9596
  43   1.0000      -0.760959       -20.7067
  44   1.0000      -0.760598       -20.6969
  45   1.0000      -0.759561       -20.6687
  46   1.0000      -0.748538       -20.3688
  47   1.0000      -0.736872       -20.0513
  48   1.0000      -0.727353       -19.7923
  49   1.0000      -0.714453       -19.4413
  50   1.0000      -0.699819       -19.0430
  51   1.0000      -0.661368       -17.9967
  52   1.0000      -0.658274       -17.9125
  53   1.0000      -0.643930       -17.5222
  54   1.0000      -0.624371       -16.9900
  55   1.0000      -0.620784       -16.8924
  56   1.0000      -0.619239       -16.8503
  57   1.0000      -0.618223       -16.8227
  58   1.0000      -0.594989       -16.1905
  59   1.0000      -0.582702       -15.8561
  60   1.0000      -0.565005       -15.3746
  61   1.0000      -0.555686       -15.1210
  62   1.0000      -0.554325       -15.0839
  63   1.0000      -0.544509       -14.8168
  64   1.0000      -0.536064       -14.5870
  65   1.0000      -0.511296       -13.9131
  66   1.0000      -0.509051       -13.8520
  67   1.0000      -0.499046       -13.5797
  68   1.0000      -0.493805       -13.4371
  69   1.0000      -0.482140       -13.1197
  70   1.0000      -0.473790       -12.8925
  71   1.0000      -0.473523       -12.8852
  72   1.0000      -0.472041       -12.8449
  73   1.0000      -0.465446       -12.6654
  74   1.0000      -0.447760       -12.1842
  75   1.0000      -0.446119       -12.1395
  76   1.0000      -0.436542       -11.8789
  77   1.0000      -0.433220       -11.7885
  78   1.0000      -0.432854       -11.7785
  79   1.0000      -0.431713       -11.7475
  80   1.0000      -0.428875       -11.6703
  81   1.0000      -0.424988       -11.5645
  82   1.0000      -0.414460       -11.2780
  83   1.0000      -0.402140       -10.9428
  84   1.0000      -0.401981       -10.9385
  85   1.0000      -0.395464       -10.7611
  86   1.0000      -0.394425       -10.7328
  87   1.0000      -0.388004       -10.5581
  88   1.0000      -0.386938       -10.5291
  89   1.0000      -0.382524       -10.4090
  90   1.0000      -0.381956       -10.3936
  91   1.0000      -0.368032       -10.0147
  92   1.0000      -0.363233        -9.8841
  93   1.0000      -0.361788        -9.8448
  94   1.0000      -0.360118        -9.7993
  95   1.0000      -0.358693        -9.7605
  96   1.0000      -0.346035        -9.4161
  97   1.0000      -0.342863        -9.3298
  98   1.0000      -0.337007        -9.1704
  99   1.0000      -0.335569        -9.1313
 100   1.0000      -0.332027        -9.0349
 101   1.0000      -0.330357        -8.9895
 102   1.0000      -0.326227        -8.8771
 103   1.0000      -0.325741        -8.8639
 104   1.0000      -0.313371        -8.5273
 105   1.0000      -0.287076        -7.8117
 106   1.0000      -0.282854        -7.6968
 107   1.0000      -0.281491        -7.6598
 108   1.0000      -0.275905        -7.5078
 109   1.0000      -0.274807        -7.4779
 110   1.0000      -0.273155        -7.4329
 111   1.0000      -0.268225        -7.2988
 112   1.0000      -0.267329        -7.2744
 113   1.0000      -0.261921        -7.1272
 114   1.0000      -0.232125        -6.3164
 115   1.0000      -0.211234        -5.7480
 116   1.0000      -0.174818        -4.7570
 117   0.0000      -0.078924        -2.1476
 118   0.0000      -0.052811        -1.4371
 119   0.0000      -0.021409        -0.5826
 120   0.0000      -0.020200        -0.5497
 121   0.0000      -0.018129        -0.4933

                 SPIN DOWN ORBITALS
  NO   OCC          E(Eh)            E(eV)
   0   1.0000     -10.235358      -278.5182
   1   1.0000     -10.235217      -278.5144
   2   1.0000     -10.234104      -278.4841
   3   1.0000     -10.233055      -278.4556
   4   1.0000     -10.227094      -278.2934
   5   1.0000     -10.224108      -278.2121
   6   1.0000     -10.214352      -277.9466
   7   1.0000     -10.213439      -277.9218
   8   1.0000     -10.213351      -277.9194
   9   1.0000     -10.212654      -277.9005
  10   1.0000     -10.212506      -277.8964
  11   1.0000     -10.211937      -277.8809
  12   1.0000     -10.211823      -277.8778
  13   1.0000     -10.211660      -277.8734
  14   1.0000     -10.211465      -277.8681
  15   1.0000     -10.210832      -277.8509
  16   1.0000     -10.210519      -277.8424
  17   1.0000     -10.210187      -277.8333
  18   1.0000     -10.208143      -277.7777
  19   1.0000     -10.206957      -277.7454
  20   1.0000     -10.206002      -277.7194
  21   1.0000     -10.204370      -277.6750
  22   1.0000     -10.203581      -277.6536
  23   1.0000     -10.202309      -277.6189
  24   1.0000     -10.201952      -277.6092
  25   1.0000     -10.201794      -277.6049
  26   1.0000     -10.194040      -277.3939
  27   1.0000     -10.192850      -277.3615
  28   1.0000     -10.191964      -277.3374
  29   1.0000     -10.188326      -277.2385
  30   1.0000     -10.185808      -277.1699
  31   1.0000     -10.185435      -277.1598
  32   1.0000     -10.177757      -276.9509
  33   1.0000     -10.175805      -276.8977
  34   1.0000      -0.877280       -23.8720
  35   1.0000      -0.875343       -23.8193
  36   1.0000      -0.872916       -23.7533
  37   1.0000      -0.819823       -22.3085
  38   1.0000      -0.808504       -22.0005
  39   1.0000      -0.806749       -21.9528
  40   1.0000      -0.795769       -21.6540
  41   1.0000      -0.792699       -21.5704
  42   1.0000      -0.768327       -20.9072
  43   1.0000      -0.761084       -20.7102
  44   1.0000      -0.760211       -20.6864
  45   1.0000      -0.759239       -20.6599
  46   1.0000      -0.747997       -20.3540
  47   1.0000      -0.734211       -19.9789
  48   1.0000      -0.725610       -19.7449
  49   1.0000      -0.713533       -19.4162
  50   1.0000      -0.697600       -18.9827
  51   1.0000      -0.660266       -17.9668
  52   1.0000      -0.655397       -17.8343
  53   1.0000      -0.643704       -17.5161
  54   1.0000      -0.623136       -16.9564
  55   1.0000      -0.620862       -16.8945
  56   1.0000      -0.618993       -16.8437
  57   1.0000      -0.613162       -16.6850
  58   1.0000      -0.594086       -16.1659
  59   1.0000      -0.581114       -15.8129
  60   1.0000      -0.562370       -15.3029
  61   1.0000      -0.555755       -15.1229
  62   1.0000      -0.554081       -15.0773
  63   1.0000      -0.543908       -14.8005
  64   1.0000      -0.535242       -14.5647
  65   1.0000      -0.508999       -13.8506
  66   1.0000      -0.507599       -13.8125
  67   1.0000      -0.498553       -13.5663
  68   1.0000      -0.492963       -13.4142
  69   1.0000      -0.480744       -13.0817
  70   1.0000      -0.473794       -12.8926
  71   1.0000      -0.472657       -12.8616
  72   1.0000      -0.471808       -12.8385
  73   1.0000      -0.461999       -12.5716
  74   1.0000      -0.447746       -12.1838
  75   1.0000      -0.445926       -12.1343
  76   1.0000      -0.434778       -11.8309
  77   1.0000      -0.433243       -11.7891
  78   1.0000      -0.431626       -11.7451
  79   1.0000      -0.431113       -11.7312
  80   1.0000      -0.427634       -11.6365
  81   1.0000      -0.422414       -11.4945
  82   1.0000      -0.414013       -11.2659
  83   1.0000      -0.400951       -10.9104
  84   1.0000      -0.396904       -10.8003
  85   1.0000      -0.394859       -10.7447
  86   1.0000      -0.391691       -10.6585
  87   1.0000      -0.388093       -10.5606
  88   1.0000      -0.386521       -10.5178
  89   1.0000      -0.379713       -10.3325
  90   1.0000      -0.378998       -10.3131
  91   1.0000      -0.366899        -9.9838
  92   1.0000      -0.363247        -9.8845
  93   1.0000      -0.361601        -9.8397
  94   1.0000      -0.359210        -9.7746
  95   1.0000      -0.355670        -9.6783
  96   1.0000      -0.345647        -9.4055
  97   1.0000      -0.340567        -9.2673
  98   1.0000      -0.335086        -9.1181
  99   1.0000      -0.334956        -9.1146
 100   1.0000      -0.330430        -8.9915
 101   1.0000      -0.330005        -8.9799
 102   1.0000      -0.325536        -8.8583
 103   1.0000      -0.325391        -8.8543
 104   1.0000      -0.311322        -8.4715
 105   1.0000      -0.284072        -7.7300
 106   1.0000      -0.282882        -7.6976
 107   1.0000      -0.281394        -7.6571
 108   1.0000      -0.274670        -7.4741
 109   1.0000      -0.272744        -7.4217
 110   1.0000      -0.268588        -7.3087
 111   1.0000      -0.266402        -7.2492
 112   1.0000      -0.262808        -7.1514
 113   1.0000      -0.259315        -7.0563
 114   1.0000      -0.230739        -6.2787
 115   1.0000      -0.204570        -5.5666
 116   0.0000      -0.093165        -2.5351
 117   0.0000      -0.070453        -1.9171
 118   0.0000      -0.050833        -1.3832
 119   0.0000      -0.021705        -0.5906
 120   0.0000      -0.019462        -0.5296

MULLIKEN ATOMIC CHARGES AND SPIN POPULATIONS
--------------------------------------------
   0 C :   -0.446803    0.093279
   1 C :   -0.368946   -0.064469
   2 C :   -0.387533    0.025289
   3 C :    0.509119    0.200940
   4 C :    0.369023   -0.134688
   5 C :   -0.445365    0.207100
   6 C :    0.574572   -0.087329
   7 C :    0.221883    0.215104
   8 C :   -0.389878   -0.106082
   9 H :    0.135637   -0.011185
  10 H :    0.139267    0.004922
  11 C :   -0.275568    0.689566
  12 H :    0.133348   -0.037082
  13 C :   -0.268413   -0.045442
  14 H :    0.149987    0.030287
  15 H :    0.150006    0.030284
  16 C :   -0.283126    0.002196
  17 H :    0.152632   -0.000207
  18 H :    0.152810   -0.000208
  19 C :   -0.508827   -0.000757
  20 H :    0.157510    0.000188
  21 H :    0.157555    0.000189
  22 C :   -0.351681   -0.016366
  23 H :    0.150417    0.010383
  24 H :    0.150105    0.010435
  25 C :   -0.266018    0.000875
  26 H :    0.139475    0.000167
  27 H :    0.139612    0.000168
  28 C :   -0.253277   -0.000241
  29 H :    0.140715    0.000053
  30 H :    0.140559    0.000052
  31 C :   -0.509630   -0.000081
  32 H :    0.157754    0.000025
  33 H :    0.157695    0.000025
  34 C :   -0.420194   -0.039876
  35 H :    0.146432   -0.000165
  36 H :    0.143049   -0.000005
  37 C :    0.661615    0.008233
  38 C :   -0.264928   -0.009215
  39 C :   -0.261877    0.004675
  40 C :    0.612364   -0.009672
  41 C :   -0.268324    0.004667
  42 C :   -0.254270   -0.009246
  43 H :    0.193318    0.000203
  44 H :    0.125937   -0.000199
  45 H :    0.124491    0.000444
  46 H :    0.124304    0.000444
  47 H :    0.126017   -0.000198
  48 C :    0.671122   -0.020214
  49 C :   -0.265319    0.024516
  50 C :   -0.262941   -0.013766
  51 C :    0.607742    0.027192
  52 C :   -0.264265   -0.013833
  53 C :   -0.259303    0.024939
  54 H :    0.192698   -0.000686
  55 H :    0.125818    0.000673
  56 H :    0.122519   -0.001221
  57 H :    0.123513   -0.001312
  58 H :    0.125116    0.000674
  59 C :   -0.069532   -0.008348
  60 C :   -0.495647    0.017013
  61 C :   -0.069992    0.002579
  62 C :   -0.494081   -0.005687
Sum of atomic charges         :    0.0000000

LOEWDIN ATOMIC CHARGES AND SPIN POPULATIONS
-------------------------------------------
   0 C :   -0.037485    0.069695
   1 C :   -0.024665   -0.028367
   2 C :   -0.022668    0.014657
   3 C :   -0.054480    0.157628
   4 C :   -0.067030   -0.069466
   5 C :    0.009413    0.165164
   6 C :   -0.068282   -0.056633
   7 C :   -0.041439    0.169567
   8 C :   -0.010199   -0.062226
   9 H :    0.062091    0.001105
  10 H :    0.063874   -0.000527
  11 C :   -0.011310    0.567548
  12 H :    0.060798    0.003990
  13 C :   -0.087323    0.003588
  14 H :    0.057057    0.024916
  15 H :    0.057031    0.024922
  16 C :   -0.094516    0.000964
  17 H :    0.045102   -0.000068
  18 H :    0.045143   -0.000067
  19 C :   -0.083990   -0.000113
  20 H :    0.036952    0.000218
  21 H :    0.036965    0.000219
  22 C :   -0.049425    0.001622
  23 H :    0.062129    0.008253
  24 H :    0.062068    0.008286
  25 C :   -0.084877    0.000183
  26 H :    0.047388    0.000004
  27 H :    0.047448    0.000003
  28 C :   -0.096534    0.000011
  29 H :    0.043506    0.000063
  30 H :    0.043472    0.000063
  31 C :   -0.084658   -0.000031
  32 H :    0.036724    0.000017
  33 H :    0.036705    0.000016
  34 C :   -0.035322   -0.031155
  35 H :    0.035166   -0.000083
  36 H :    0.034177   -0.000005
  37 C :   -0.068530    0.004494
  38 C :   -0.012184   -0.007410
  39 C :   -0.010759    0.002949
  40 C :   -0.074154   -0.007580
  41 C :   -0.011092    0.002944
  42 C :   -0.012609   -0.007395
  43 H :    0.050395   -0.000039
  44 H :    0.061568    0.000034
  45 H :    0.060765   -0.000039
  46 H :    0.060540   -0.000040
  47 H :    0.061608    0.000033
  48 C :   -0.068346   -0.011443
  49 C :   -0.014020    0.019652
  50 C :   -0.011352   -0.008779
  51 C :   -0.075116    0.021055
  52 C :   -0.011354   -0.008776
  53 C :   -0.012539    0.019850
  54 H :    0.050167    0.000080
  55 H :    0.061488   -0.000061
  56 H :    0.059789    0.000067
  57 H :    0.060540    0.000064
  58 H :    0.061354   -0.000062
  59 C :   -0.035531   -0.003724
  60 C :   -0.052822    0.013763
  61 C :   -0.035399    0.001054
  62 C :   -0.051411   -0.004655

  Mayer bond orders larger than 0.100000
B(  0-C ,  1-C ) :   2.2694 B(  0-C ,  3-C ) :   0.1074 B(  0-C , 48-C ) :   0.9764
B(  1-C ,  3-C ) :   0.7843 B(  2-C ,  6-C ) :   0.7357 B(  2-C , 34-C ) :   2.3247
B(  3-C ,  4-C ) :   1.2936 B(  3-C ,  7-C ) :   0.1110 B(  3-C ,  8-C ) :   1.4319
B(  4-C ,  5-C ) :   1.2378 B(  4-C ,  6-C ) :   0.1194 B(  4-C , 11-C ) :   1.2918
B(  5-C ,  6-C ) :   1.4920 B(  5-C ,  9-H ) :   0.9650 B(  6-C ,  7-C ) :   1.3516
B(  6-C ,  8-C ) :   0.1062 B(  6-C , 34-C ) :   0.1038 B(  7-C ,  8-C ) :   1.4307
B(  7-C , 22-C ) :   0.9664 B(  8-C , 10-H ) :   0.9666 B( 11-C , 12-H ) :   0.9810
B( 11-C , 13-C ) :   0.9958 B( 13-C , 14-H ) :   0.9550 B( 13-C , 15-H ) :   0.9549
B( 13-C , 16-C ) :   0.9860 B( 16-C , 17-H ) :   0.9712 B( 16-C , 18-H ) :   0.9712
B( 16-C , 19-C ) :   0.9610 B( 19-C , 20-H ) :   0.9734 B( 19-C , 21-H ) :   0.9734
B( 19-C , 35-H ) :   0.9670 B( 22-C , 23-H ) :   0.9551 B( 22-C , 24-H ) :   0.9542
B( 22-C , 25-C ) :   1.0212 B( 25-C , 26-H ) :   0.9590 B( 25-C , 27-H ) :   0.9592
B( 25-C , 28-C ) :   0.9890 B( 28-C , 29-H ) :   0.9722 B( 28-C , 30-H ) :   0.9722
B( 28-C , 31-C ) :   0.9517 B( 31-C , 32-H ) :   0.9738 B( 31-C , 33-H ) :   0.9738
B( 31-C , 36-H ) :   0.9682 B( 34-C , 37-C ) :   0.9630 B( 37-C , 38-C ) :   1.3842
B( 37-C , 39-C ) :   0.1072 B( 37-C , 41-C ) :   0.1056 B( 37-C , 42-C ) :   1.3736
B( 38-C , 39-C ) :   1.5010 B( 38-C , 45-H ) :   0.9741 B( 39-C , 40-C ) :   1.3691
B( 39-C , 47-H ) :   0.9715 B( 40-C , 41-C ) :   1.3730 B( 40-C , 61-C ) :   0.9175
B( 41-C , 42-C ) :   1.5050 B( 41-C , 44-H ) :   0.9723 B( 42-C , 46-H ) :   0.9731
B( 43-H , 62-C ) :   0.9685 B( 48-C , 49-C ) :   1.3731 B( 48-C , 50-C ) :   0.1049
B( 48-C , 52-C ) :   0.1055 B( 48-C , 53-C ) :   1.3695 B( 49-C , 50-C ) :   1.5063
B( 49-C , 56-H ) :   0.9726 B( 50-C , 51-C ) :   1.3680 B( 50-C , 58-H ) :   0.9734
B( 51-C , 52-C ) :   1.3704 B( 51-C , 59-C ) :   0.9196 B( 52-C , 53-C ) :   1.5032
B( 52-C , 55-H ) :   0.9710 B( 53-C , 57-H ) :   0.9753 B( 54-H , 60-C ) :   0.9691
B( 59-C , 60-C ) :   2.8018 B( 61-C , 62-C ) :   2.8047

FINAL SINGLE POINT ENERGY     -1312.127143924388

DIPOLE MOMENT
-------------
                                X             Y             Z
Electronic contribution:      0.37835      -1.99180      -0.01116
Nuclear contribution   :     -0.55926       1.94057       0.01127
                        -----------------------------------------
Total Dipole Moment    :     -0.18090      -0.05124       0.00010
                        -----------------------------------------
Magnitude (a.u.)       :      0.18802
Magnitude (Debye)      :      0.47791

Rotational constants in cm-1:     0.005924     0.001229     0.001019
Rotational constants in MHz :   177.589203    36.830758    30.545228

                             ****ORCA TERMINATED NORMALLY****
TOTAL RUN TIME: 0 days 3 hours 2 minutes 19 seconds 718 msec
