                         Program Version 4.2.1 -  RELEASE  -
|  1> ! B3LYP cc-pVDZ OPT
|  2> %pal nprocs 16 end
|  3> *XYZFile 0 2 larger.xyz
|  4>
|  5>                          ****END OF INPUT****
 Total Charge           Charge          ....    0
 Multiplicity           Mult            ....    2
 Number of Electrons    NEL             ....  233
FINAL SINGLE POINT ENERGY     -1312.046893092265
FINAL SINGLE POINT ENERGY     -1312.048504920261
FINAL SINGLE POINT ENERGY     -1312.048686975169
FINAL SINGLE POINT ENERGY     -1312.048736687627
FINAL SINGLE POINT ENERGY     -1312.048742954120
FINAL SINGLE POINT ENERGY     -1312.048745728702
FINAL SINGLE POINT ENERGY     -1312.048748677669
FINAL SINGLE POINT ENERGY     -1312.048752075459
FINAL SINGLE POINT ENERGY     -1312.048754433303
FINAL SINGLE POINT ENERGY     -1312.048755510926
                    ***********************HURRAY********************

CARTESIAN COORDINATES (ANGSTROEM)
---------------------------------
  C     12.367592   -0.025121   -0.005055
  C     11.143516   -0.065571   -0.003091
  C      5.469965    0.000164   -0.000860
  C      9.724428   -0.085636   -0.001988
  C      8.990947   -1.332264   -0.004597
  C      7.571180   -1.234603   -0.004335
  C      6.897570   -0.010526   -0.001156
  C      7.633835    1.219230    0.001830
  C      9.025636    1.138500    0.001412
  H      6.976365   -2.148083   -0.006442
  H      9.618395    2.053009    0.003336
  C      9.648268   -2.580728   -0.006648
  H     10.741775   -2.570134   -0.006087
  C      8.962822   -3.914226   -0.008547
  H      8.289115   -3.996019    0.869672
  H      8.289579   -3.993943   -0.887314
  C      9.934837   -5.100882   -0.009597
  H     10.595360   -5.023915   -0.892993
  H     10.595356   -5.025429    0.873929
  C      9.227340   -6.456809   -0.010736
  H      8.583968   -6.572870   -0.900262
  H      8.584084   -6.574381    0.878675
  C      6.886556    2.536546    0.004661
  H      6.207286    2.549836   -0.868804
  H      6.210054    2.547844    0.880332
  C      7.730810    3.813338    0.004708
  H      8.395334    3.824131    0.888791
  H      8.393542    3.825194   -0.880701
  C      6.875218    5.085593    0.006284
  H      6.207746    5.076437   -0.875929
  H      6.209688    5.075624    0.889957
  C      7.706740    6.370139    0.005945
  H      8.357126    6.426652   -0.884294
  H      8.359148    6.425867    0.894756
  C      4.247408    0.005293    0.000069
  H      9.950429   -7.288043   -0.011486
  H      7.065522    7.266267    0.007061
  C      2.821725    0.006250    0.000155
  C      2.098345   -1.207100   -0.026231
  C      0.708294   -1.205940   -0.026298
  C     -0.010828    0.007844    0.000149
  C      0.709640    1.220907    0.026632
  C      2.099585    1.220396    0.026604
  H     -3.729805    0.011363    0.000138
  H      0.162122    2.164869    0.047653
  H      2.644831   -2.151614   -0.047263
  H      2.646650    2.164662    0.047708
  H      0.159786   -2.149317   -0.047298
  C     13.789982    0.030865   -0.006241
  C     14.563398   -1.152339   -0.033105
  C     15.951874   -1.094939   -0.034266
  C     16.621636    0.147027   -0.008504
  C     15.852075    1.329913    0.018385
  C     14.463678    1.273734    0.019439
  H     20.337203    0.302453   -0.011733
  H     16.361455    2.295067    0.038832
  H     14.057010   -2.119043   -0.053804
  H     13.878704    2.194834    0.040783
  H     16.537579   -2.015637   -0.055623
  C     18.051053    0.206171   -0.009795
  C     19.265622    0.256760   -0.010806
  C     -1.441726    0.008893    0.000141
  C     -2.657216    0.010219    0.000143

 Multiplicity           Mult            ....    2
 Number of Electrons    NEL             ....  233
 Basis Dimension        Dim             ....  621

ORBITAL ENERGIES
----------------
                 SPIN UP ORBITALS
  NO   OCC          E(Eh)            E(eV)
   0   1.0000     -10.223771      -278.2030
   1   1.0000     -10.222567      -278.1702
   2   1.0000     -10.221998      -278.1547
   3   1.0000     -10.221085      -278.1299
   4   1.0000     -10.217666      -278.0368
   5   1.0000     -10.215562      -277.9796
   6   1.0000     -10.205855      -277.7154
   7   1.0000     -10.204310      -277.6734
   8   1.0000     -10.204224      -277.6711
   9   1.0000     -10.203675      -277.6561
  10   1.0000     -10.203537      -277.6523
  11   1.0000     -10.202747      -277.6309
  12   1.0000     -10.202585      -277.6264
  13   1.0000     -10.202238      -277.6170
  14   1.0000     -10.202041      -277.6116
  15   1.0000     -10.201752      -277.6038
  16   1.0000     -10.198173      -277.5064
  17   1.0000     -10.196308      -277.4556
  18   1.0000     -10.195612      -277.4367
  19   1.0000     -10.195072      -277.4220
  20   1.0000     -10.194224      -277.3989
  21   1.0000     -10.193906      -277.3903
  22   1.0000     -10.193207      -277.3713
  23   1.0000     -10.192900      -277.3629
  24   1.0000     -10.191871      -277.3349
  25   1.0000     -10.191253      -277.3181
  26   1.0000     -10.190873      -277.3077
  27   1.0000     -10.190280      -277.2916
  28   1.0000     -10.189622      -277.2737
  29   1.0000     -10.186841      -277.1980
  30   1.0000     -10.184672      -277.1390
  31   1.0000     -10.184369      -277.1308
  32   1.0000     -10.179367      -276.9947
  33   1.0000     -10.177779      -276.9515
  34   1.0000      -0.877863       -23.8879
  35   1.0000      -0.875377       -23.8202
  36   1.0000      -0.873905       -23.7802
  37   1.0000      -0.824196       -22.4275
  38   1.0000      -0.809061       -22.0157
  39   1.0000      -0.806165       -21.9369
  40   1.0000      -0.799109       -21.7449
  41   1.0000      -0.793146       -21.5826
  42   1.0000      -0.771115       -20.9831
  43   1.0000      -0.759725       -20.6732
  44   1.0000      -0.758679       -20.6447
  45   1.0000      -0.758386       -20.6367
  46   1.0000      -0.746254       -20.3066
  47   1.0000      -0.737090       -20.0572
  48   1.0000      -0.726000       -19.7555
  49   1.0000      -0.712930       -19.3998
  50   1.0000      -0.700539       -19.0626
  51   1.0000      -0.660776       -17.9806
  52   1.0000      -0.658131       -17.9087
  53   1.0000      -0.642315       -17.4783
  54   1.0000      -0.623360       -16.9625
  55   1.0000      -0.619269       -16.8512
  56   1.0000      -0.618687       -16.8353
  57   1.0000      -0.617681       -16.8080
  58   1.0000      -0.594982       -16.1903
  59   1.0000      -0.582991       -15.8640
  60   1.0000      -0.564816       -15.3694
  61   1.0000      -0.553265       -15.0551
  62   1.0000      -0.551975       -15.0200
  63   1.0000      -0.542770       -14.7695
  64   1.0000      -0.534277       -14.5384
  65   1.0000      -0.510497       -13.8913
  66   1.0000      -0.507325       -13.8050
  67   1.0000      -0.496975       -13.5234
  68   1.0000      -0.492435       -13.3998
  69   1.0000      -0.482330       -13.1249
  70   1.0000      -0.473648       -12.8886
  71   1.0000      -0.473237       -12.8774
  72   1.0000      -0.471538       -12.8312
  73   1.0000      -0.465180       -12.6582
  74   1.0000      -0.445670       -12.1273
  75   1.0000      -0.444070       -12.0838
  76   1.0000      -0.436357       -11.8739
  77   1.0000      -0.432711       -11.7747
  78   1.0000      -0.431243       -11.7347
  79   1.0000      -0.429821       -11.6960
  80   1.0000      -0.429050       -11.6750
  81   1.0000      -0.424873       -11.5614
  82   1.0000      -0.414569       -11.2810
  83   1.0000      -0.402023       -10.9396
  84   1.0000      -0.401805       -10.9337
  85   1.0000      -0.394663       -10.7393
  86   1.0000      -0.393728       -10.7139
  87   1.0000      -0.386287       -10.5114
  88   1.0000      -0.385255       -10.4833
  89   1.0000      -0.382109       -10.3977
  90   1.0000      -0.381720       -10.3871
  91   1.0000      -0.368210       -10.0195
  92   1.0000      -0.361234        -9.8297
  93   1.0000      -0.360301        -9.8043
  94   1.0000      -0.359135        -9.7726
  95   1.0000      -0.358273        -9.7491
  96   1.0000      -0.345068        -9.3898
  97   1.0000      -0.343325        -9.3424
  98   1.0000      -0.336090        -9.1455
  99   1.0000      -0.335556        -9.1309
 100   1.0000      -0.331395        -9.0177
 101   1.0000      -0.330580        -8.9955
 102   1.0000      -0.327110        -8.9011
 103   1.0000      -0.325932        -8.8691
 104   1.0000      -0.312085        -8.4923
 105   1.0000      -0.285632        -7.7724
 106   1.0000      -0.280111        -7.6222
 107   1.0000      -0.278806        -7.5867
 108   1.0000      -0.275142        -7.4870
 109   1.0000      -0.273351        -7.4383
 110   1.0000      -0.271647        -7.3919
 111   1.0000      -0.266751        -7.2587
 112   1.0000      -0.265935        -7.2365
 113   1.0000      -0.260142        -7.0788
 114   1.0000      -0.230315        -6.2672
 115   1.0000      -0.209723        -5.7068
 116   1.0000      -0.173997        -4.7347
 117   0.0000      -0.076418        -2.0794
 118   0.0000      -0.049487        -1.3466
 119   0.0000      -0.016531        -0.4498
 120   0.0000      -0.015355        -0.4178
 121   0.0000      -0.014486        -0.3942

                 SPIN DOWN ORBITALS
  NO   OCC          E(Eh)            E(eV)
   0   1.0000     -10.223588      -278.1980
   1   1.0000     -10.222753      -278.1753
   2   1.0000     -10.222396      -278.1655
   3   1.0000     -10.220626      -278.1174
   4   1.0000     -10.217167      -278.0233
   5   1.0000     -10.214310      -277.9455
   6   1.0000     -10.204291      -277.6729
   7   1.0000     -10.204207      -277.6706
   8   1.0000     -10.204190      -277.6701
   9   1.0000     -10.203774      -277.6588
  10   1.0000     -10.203649      -277.6554
  11   1.0000     -10.202784      -277.6319
  12   1.0000     -10.202710      -277.6298
  13   1.0000     -10.202486      -277.6238
  14   1.0000     -10.202017      -277.6110
  15   1.0000     -10.201732      -277.6032
  16   1.0000     -10.195561      -277.4353
  17   1.0000     -10.195075      -277.4221
  18   1.0000     -10.195053      -277.4215
  19   1.0000     -10.194783      -277.4141
  20   1.0000     -10.194352      -277.4024
  21   1.0000     -10.194007      -277.3930
  22   1.0000     -10.193065      -277.3674
  23   1.0000     -10.191923      -277.3363
  24   1.0000     -10.191340      -277.3205
  25   1.0000     -10.190966      -277.3103
  26   1.0000     -10.190480      -277.2971
  27   1.0000     -10.189388      -277.2674
  28   1.0000     -10.186802      -277.1970
  29   1.0000     -10.186469      -277.1879
  30   1.0000     -10.184669      -277.1389
  31   1.0000     -10.184370      -277.1308
  32   1.0000     -10.179374      -276.9949
  33   1.0000     -10.177781      -276.9515
  34   1.0000      -0.876374       -23.8474
  35   1.0000      -0.874539       -23.7974
  36   1.0000      -0.872648       -23.7460
  37   1.0000      -0.819866       -22.3097
  38   1.0000      -0.807838       -21.9824
  39   1.0000      -0.805388       -21.9157
  40   1.0000      -0.797131       -21.6910
  41   1.0000      -0.792098       -21.5541
  42   1.0000      -0.769109       -20.9285
  43   1.0000      -0.759861       -20.6769
  44   1.0000      -0.758248       -20.6330
  45   1.0000      -0.758053       -20.6277
  46   1.0000      -0.745715       -20.2919
  47   1.0000      -0.733871       -19.9697
  48   1.0000      -0.724835       -19.7238
  49   1.0000      -0.711948       -19.3731
  50   1.0000      -0.698357       -19.0033
  51   1.0000      -0.659236       -17.9387
  52   1.0000      -0.655726       -17.8432
  53   1.0000      -0.642043       -17.4709
  54   1.0000      -0.622066       -16.9273
  55   1.0000      -0.619355       -16.8535
  56   1.0000      -0.617535       -16.8040
  57   1.0000      -0.613540       -16.6953
  58   1.0000      -0.594086       -16.1659
  59   1.0000      -0.581430       -15.8215
  60   1.0000      -0.562089       -15.2952
  61   1.0000      -0.553350       -15.0574
  62   1.0000      -0.551722       -15.0131
  63   1.0000      -0.542165       -14.7531
  64   1.0000      -0.533411       -14.5148
  65   1.0000      -0.507669       -13.8144
  66   1.0000      -0.506288       -13.7768
  67   1.0000      -0.496630       -13.5140
  68   1.0000      -0.491659       -13.3787
  69   1.0000      -0.480965       -13.0877
  70   1.0000      -0.473253       -12.8779
  71   1.0000      -0.472796       -12.8654
  72   1.0000      -0.471309       -12.8250
  73   1.0000      -0.461723       -12.5641
  74   1.0000      -0.445636       -12.1264
  75   1.0000      -0.443865       -12.0782
  76   1.0000      -0.434284       -11.8175
  77   1.0000      -0.431406       -11.7392
  78   1.0000      -0.431264       -11.7353
  79   1.0000      -0.429704       -11.6928
  80   1.0000      -0.427870       -11.6429
  81   1.0000      -0.422289       -11.4911
  82   1.0000      -0.414086       -11.2678
  83   1.0000      -0.400995       -10.9116
  84   1.0000      -0.396281       -10.7834
  85   1.0000      -0.394174       -10.7260
  86   1.0000      -0.391072       -10.6416
  87   1.0000      -0.386392       -10.5142
  88   1.0000      -0.384844       -10.4721
  89   1.0000      -0.379506       -10.3269
  90   1.0000      -0.378636       -10.3032
  91   1.0000      -0.367095        -9.9892
  92   1.0000      -0.361143        -9.8272
  93   1.0000      -0.359823        -9.7913
  94   1.0000      -0.358623        -9.7586
  95   1.0000      -0.355269        -9.6673
  96   1.0000      -0.344645        -9.3783
  97   1.0000      -0.341109        -9.2820
  98   1.0000      -0.335057        -9.1174
  99   1.0000      -0.333981        -9.0881
 100   1.0000      -0.330241        -8.9863
 101   1.0000      -0.329867        -8.9761
 102   1.0000      -0.326353        -8.8805
 103   1.0000      -0.325580        -8.8595
 104   1.0000      -0.310012        -8.4359
 105   1.0000      -0.282358        -7.6833
 106   1.0000      -0.280146        -7.6231
 107   1.0000      -0.278700        -7.5838
 108   1.0000      -0.273215        -7.4346
 109   1.0000      -0.271236        -7.3807
 110   1.0000      -0.267140        -7.2692
 111   1.0000      -0.264987        -7.2107
 112   1.0000      -0.262331        -7.1384
 113   1.0000      -0.257556        -7.0085
 114   1.0000      -0.228911        -6.2290
 115   1.0000      -0.202964        -5.5229
 116   0.0000      -0.091529        -2.4906
 117   0.0000      -0.067763        -1.8439
 118   0.0000      -0.047526        -1.2932
 119   0.0000      -0.016861        -0.4588
 120   0.0000      -0.014562        -0.3963

MULLIKEN ATOMIC CHARGES AND SPIN POPULATIONS
--------------------------------------------
   0 C :    0.182627    0.100250
   1 C :    0.250956   -0.067696
   2 C :    0.237090    0.032800
   3 C :   -0.188295    0.222197
   4 C :    0.068035   -0.169013
   5 C :   -0.023004    0.221029
   6 C :   -0.154283   -0.106406
   7 C :   -0.089876    0.231054
   8 C :    0.014108   -0.117457
   9 H :   -0.050576   -0.009186
  10 H :   -0.051735    0.004272
  11 C :   -0.100502    0.695139
  12 H :   -0.023345   -0.030315
  13 C :    0.032404   -0.047669
  14 H :    0.030015    0.031113
  15 H :    0.029966    0.031107
  16 C :   -0.041018    0.002195
  17 H :    0.012751    0.000491
  18 H :    0.012885    0.000489
  19 C :    0.005646   -0.000148
  20 H :    0.017675    0.000150
  21 H :    0.017724    0.000151
  22 C :    0.036989   -0.018417
  23 H :    0.033691    0.009813
  24 H :    0.033626    0.009855
  25 C :   -0.037341    0.000862
  26 H :    0.017455    0.000162
  27 H :    0.017446    0.000165
  28 C :   -0.024212    0.000029
  29 H :    0.006001    0.000055
  30 H :    0.005827    0.000055
  31 C :    0.003691   -0.000079
  32 H :    0.017344    0.000023
  33 H :    0.017320    0.000023
  34 C :    0.174503   -0.048062
  35 H :    0.015440   -0.000199
  36 H :    0.012543   -0.000005
  37 C :   -0.246493    0.012145
  38 C :    0.037140   -0.011574
  39 C :    0.049082    0.006659
  40 C :   -0.107314   -0.012166
  41 C :    0.048615    0.006650
  42 C :    0.035035   -0.011544
  43 H :   -0.020002    0.000297
  44 H :   -0.032475   -0.000270
  45 H :   -0.035440    0.000494
  46 H :   -0.034528    0.000465
  47 H :   -0.032321   -0.000271
  48 C :   -0.250484   -0.026188
  49 C :    0.029659    0.027332
  50 C :    0.050399   -0.015748
  51 C :   -0.107066    0.030039
  52 C :    0.047340   -0.015746
  53 C :    0.038825    0.027422
  54 H :   -0.020777   -0.000744
  55 H :   -0.032671    0.000630
  56 H :   -0.034067   -0.001129
  57 H :   -0.036320   -0.001191
  58 H :   -0.033767    0.000631
  59 C :    0.625337   -0.010238
  60 C :   -0.541963    0.018429
  61 C :    0.624813    0.004159
  62 C :   -0.540125   -0.007370
Sum of atomic charges         :   -0.0000000

LOEWDIN ATOMIC CHARGES AND SPIN POPULATIONS
-------------------------------------------
   0 C :   -0.023455    0.072837
   1 C :   -0.012903   -0.030897
   2 C :   -0.011482    0.017563
   3 C :   -0.039210    0.158940
   4 C :   -0.039060   -0.071893
   5 C :    0.011562    0.166913
   6 C :   -0.052656   -0.059025
   7 C :   -0.004648    0.170436
   8 C :   -0.007081   -0.064180
   9 H :    0.028808    0.000878
  10 H :    0.030270   -0.000449
  11 C :    0.013076    0.569741
  12 H :    0.021764    0.003393
  13 C :   -0.054494    0.005410
  14 H :    0.034836    0.024305
  15 H :    0.034810    0.024302
  16 C :   -0.046298    0.001153
  17 H :    0.025630    0.000305
  18 H :    0.025683    0.000304
  19 C :   -0.067486   -0.000028
  20 H :    0.025726    0.000246
  21 H :    0.025744    0.000247
  22 C :   -0.036073    0.002108
  23 H :    0.039304    0.007719
  24 H :    0.039232    0.007751
  25 C :   -0.043923    0.000156
  26 H :    0.024751    0.000050
  27 H :    0.024783    0.000051
  28 C :   -0.047164    0.000021
  29 H :    0.023952    0.000090
  30 H :    0.023892    0.000090
  31 C :   -0.067147   -0.000037
  32 H :    0.025388    0.000016
  33 H :    0.025372    0.000016
  34 C :   -0.023488   -0.034170
  35 H :    0.029017   -0.000109
  36 H :    0.027716   -0.000007
  37 C :   -0.049238    0.005807
  38 C :    0.000624   -0.008781
  39 C :    0.001555    0.004112
  40 C :   -0.051941   -0.008842
  41 C :    0.001444    0.004107
  42 C :   -0.000340   -0.008767
  43 H :    0.023908   -0.000011
  44 H :    0.033960    0.000014
  45 H :    0.032900   -0.000011
  46 H :    0.032785   -0.000017
  47 H :    0.034019    0.000014
  48 C :   -0.049239   -0.012417
  49 C :   -0.001454    0.020800
  50 C :    0.001249   -0.009642
  51 C :   -0.052878    0.021890
  52 C :    0.001002   -0.009626
  53 C :    0.000274    0.020868
  54 H :    0.023625    0.000030
  55 H :    0.033817   -0.000038
  56 H :    0.032217    0.000025
  57 H :    0.032618    0.000022
  58 H :    0.033699   -0.000039
  59 C :   -0.007129   -0.004391
  60 C :   -0.043236    0.014732
  61 C :   -0.007019    0.001812
  62 C :   -0.041966   -0.005897

  Mayer bond orders larger than 0.100000
B(  0-C ,  1-C ) :   1.6891 B(  0-C ,  3-C ) :  -0.1096 B(  0-C , 48-C ) :   0.9161
B(  1-C ,  3-C ) :   0.8864 B(  1-C , 48-C ) :  -0.1800 B(  2-C ,  6-C ) :   0.8848
B(  2-C , 34-C ) :   1.7299 B(  2-C , 37-C ) :  -0.1729 B(  3-C ,  4-C ) :   1.2792
B(  3-C ,  8-C ) :   1.3898 B(  3-C , 48-C ) :   0.1064 B(  4-C ,  5-C ) :   1.2944
B(  4-C , 11-C ) :   1.3820 B(  5-C ,  6-C ) :   1.4415 B(  5-C ,  9-H ) :   0.9201
B(  6-C ,  7-C ) :   1.3438 B(  6-C , 34-C ) :  -0.1092 B(  7-C ,  8-C ) :   1.4341
B(  7-C , 22-C ) :   1.0969 B(  8-C , 10-H ) :   0.9220 B( 11-C , 12-H ) :   0.8999
B( 11-C , 13-C ) :   1.0835 B( 13-C , 14-H ) :   0.9119 B( 13-C , 15-H ) :   0.9119
B( 13-C , 16-C ) :   1.0711 B( 16-C , 17-H ) :   0.9442 B( 16-C , 18-H ) :   0.9442
B( 16-C , 19-C ) :   1.1057 B( 19-C , 20-H ) :   0.9654 B( 19-C , 21-H ) :   0.9654
B( 19-C , 35-H ) :   0.9612 B( 22-C , 23-H ) :   0.8960 B( 22-C , 24-H ) :   0.8959
B( 22-C , 25-C ) :   1.1030 B( 25-C , 26-H ) :   0.9295 B( 25-C , 27-H ) :   0.9295
B( 25-C , 28-C ) :   1.0737 B( 28-C , 29-H ) :   0.9416 B( 28-C , 30-H ) :   0.9416
B( 28-C , 31-C ) :   1.1041 B( 31-C , 32-H ) :   0.9665 B( 31-C , 33-H ) :   0.9665
B( 31-C , 36-H ) :   0.9626 B( 34-C , 37-C ) :   0.9119 B( 37-C , 38-C ) :   1.4239
B( 37-C , 42-C ) :   1.4186 B( 38-C , 39-C ) :   1.4735 B( 38-C , 45-H ) :   0.9383
B( 39-C , 40-C ) :   1.4084 B( 39-C , 47-H ) :   0.9380 B( 40-C , 41-C ) :   1.4083
B( 40-C , 61-C ) :   0.9104 B( 41-C , 42-C ) :   1.4741 B( 41-C , 44-H ) :   0.9380
B( 42-C , 46-H ) :   0.9387 B( 43-H , 62-C ) :   1.0977 B( 48-C , 49-C ) :   1.4174
B( 48-C , 53-C ) :   1.4180 B( 49-C , 50-C ) :   1.4757 B( 49-C , 56-H ) :   0.9388
B( 50-C , 51-C ) :   1.4048 B( 50-C , 58-H ) :   0.9382 B( 51-C , 52-C ) :   1.4074
B( 51-C , 59-C ) :   0.9111 B( 52-C , 53-C ) :   1.4763 B( 52-C , 55-H ) :   0.9379
B( 53-C , 57-H ) :   0.9384 B( 54-H , 60-C ) :   1.0983 B( 59-C , 60-C ) :   2.2033
B( 61-C , 62-C ) :   2.2060

FINAL SINGLE POINT ENERGY     -1312.048755972538

DIPOLE MOMENT
-------------
                                X             Y             Z
Electronic contribution:      0.39333      -1.98430      -0.01118
Nuclear contribution   :     -0.55926       1.94057       0.01127
                        -----------------------------------------
Total Dipole Moment    :     -0.16593      -0.04373       0.00009
                        -----------------------------------------
Magnitude (a.u.)       :      0.17159
Magnitude (Debye)      :      0.43616

Rotational constants in cm-1:     0.005924     0.001229     0.001019
Rotational constants in MHz :   177.589203    36.830758    30.545228

                             ****ORCA TERMINATED NORMALLY****
TOTAL RUN TIME: 0 days 0 hours 33 minutes 16 seconds 374 msec
