                         Program Version 5.0.4 -  RELEASE  -
|  1> ! B3LYP cc-pVDZ OPT
|  2> %pal nprocs 16 end
|  3> *XYZFile 0 1 capping.xyz
|  4>
|  5>                          ****END OF INPUT****
 Total Charge           Charge          ....    0
 Multiplicity           Mult            ....    1
 Number of Electrons    NEL             ....  154
FINAL SINGLE POINT ENERGY      -816.124052171437
FINAL SINGLE POINT ENERGY      -816.250619825972
FINAL SINGLE POINT ENERGY      -816.326658912138
FINAL SINGLE POINT ENERGY      -816.381577927958
FINAL SINGLE POINT ENERGY      -816.420864146581
FINAL SINGLE POINT ENERGY      -816.446557845518
FINAL SINGLE POINT ENERGY      -816.459031461681
FINAL SINGLE POINT ENERGY      -816.462486433599
FINAL SINGLE POINT ENERGY      -816.463206884847
FINAL SINGLE POINT ENERGY      -816.463354990307
FINAL SINGLE POINT ENERGY      -816.463421606793
FINAL SINGLE POINT ENERGY      -816.463444620405
FINAL SINGLE POINT ENERGY      -816.463458196790
FINAL SINGLE POINT ENERGY      -816.463463197127
FINAL SINGLE POINT ENERGY      -816.463465185795
                    ***********************HURRAY********************

CARTESIAN COORDINATES (ANGSTROEM)
---------------------------------
  C      3.980346   -0.949794    0.254441
  C      3.343996    0.085296    0.203098
  C      0.263276    4.833595   -0.043657
  C      2.585269    1.298824    0.137388
  C      3.236851    2.556390    0.057006
  C      2.429641    3.693252   -0.001004
  C      1.022404    3.620042    0.016431
  C      0.370787    2.362100    0.091138
  C      1.177913    1.225315    0.151462
  H      2.883695    4.681996   -0.063859
  H      0.723828    0.236389    0.210811
  C      4.751953    2.622775    0.037269
  H      5.114235    1.963442   -0.772469
  H      5.131307    2.155220    0.964923
  C      5.381912    4.008941   -0.122446
  H      5.015717    4.481208   -1.052726
  H      5.060310    4.667694    0.705286
  C      6.914473    3.958754   -0.153739
  H      7.281636    3.485037    0.775587
  H      7.239314    3.297660   -0.978564
  C      7.560014    5.336946   -0.317418
  H      7.284015    6.010563    0.512211
  H      7.237735    5.820625   -1.255686
  C     -1.144399    2.294950    0.100317
  H     -1.510526    2.856965    0.979587
  H     -1.518053    2.867193   -0.768140
  C     -1.774869    0.899609    0.092191
  H     -1.408234    0.330089   -0.781531
  H     -1.453169    0.334494    0.986170
  C     -3.306905    0.947936    0.051490
  H     -3.679490    1.511906    0.927522
  H     -3.627675    1.524427   -0.836913
  C     -3.964101   -0.436402    0.019835
  H     -3.654716   -1.010097    0.914333
  H     -3.578499   -1.002447   -0.849566
  C     -5.494374   -0.388922   -0.048078
  H     -5.801208    0.192201   -0.939024
  H     -5.883140    0.169909    0.824839
  C     -6.154103   -1.771818   -0.097432
  H     -5.758473   -2.331685   -0.965483
  H     -5.855270   -2.350527    0.796628
  C     -7.681525   -1.711624   -0.180614
  H     -8.109749   -1.186906    0.691046
  H     -8.012087   -1.171280   -1.084653
  C     -0.371959    5.869231   -0.097607
  H      4.541785   -1.862319    0.301545
  H     -0.934420    6.781176   -0.143850
  H      8.659748    5.267803   -0.338562
  H     -8.125856   -2.719930   -0.214174

 Multiplicity           Mult            ....    1
 Number of Electrons    NEL             ....  154
 Basis Dimension        Dim             ....  434

ORBITAL ENERGIES
----------------

  NO   OCC          E(Eh)            E(eV)
   0   2.0000     -10.212181      -277.8876
   1   2.0000     -10.212158      -277.8869
   2   2.0000     -10.201342      -277.5926
   3   2.0000     -10.201258      -277.5904
   4   2.0000     -10.191954      -277.3372
   5   2.0000     -10.191918      -277.3362
   6   2.0000     -10.191588      -277.3272
   7   2.0000     -10.191559      -277.3264
   8   2.0000     -10.186710      -277.1945
   9   2.0000     -10.186682      -277.1937
  10   2.0000     -10.186579      -277.1909
  11   2.0000     -10.186435      -277.1870
  12   2.0000     -10.181720      -277.0587
  13   2.0000     -10.181571      -277.0546
  14   2.0000     -10.181488      -277.0524
  15   2.0000     -10.178827      -276.9800
  16   2.0000     -10.177961      -276.9564
  17   2.0000     -10.177039      -276.9313
  18   2.0000     -10.176023      -276.9037
  19   2.0000     -10.175403      -276.8868
  20   2.0000     -10.173225      -276.8275
  21   2.0000      -0.874345       -23.7921
  22   2.0000      -0.818520       -22.2731
  23   2.0000      -0.804253       -21.8848
  24   2.0000      -0.794934       -21.6313
  25   2.0000      -0.783697       -21.3255
  26   2.0000      -0.761841       -20.7307
  27   2.0000      -0.751471       -20.4486
  28   2.0000      -0.732716       -19.9382
  29   2.0000      -0.720027       -19.5929
  30   2.0000      -0.706410       -19.2224
  31   2.0000      -0.671835       -18.2816
  32   2.0000      -0.642188       -17.4748
  33   2.0000      -0.637101       -17.3364
  34   2.0000      -0.612501       -16.6670
  35   2.0000      -0.590332       -16.0637
  36   2.0000      -0.577743       -15.7212
  37   2.0000      -0.570125       -15.5139
  38   2.0000      -0.562911       -15.3176
  39   2.0000      -0.541445       -14.7335
  40   2.0000      -0.524678       -14.2772
  41   2.0000      -0.498385       -13.5617
  42   2.0000      -0.483889       -13.1673
  43   2.0000      -0.478564       -13.0224
  44   2.0000      -0.475634       -12.9427
  45   2.0000      -0.470099       -12.7920
  46   2.0000      -0.455068       -12.3830
  47   2.0000      -0.430450       -11.7131
  48   2.0000      -0.425972       -11.5913
  49   2.0000      -0.424545       -11.5525
  50   2.0000      -0.422703       -11.5023
  51   2.0000      -0.417311       -11.3556
  52   2.0000      -0.415261       -11.2998
  53   2.0000      -0.405010       -11.0209
  54   2.0000      -0.386484       -10.5168
  55   2.0000      -0.385869       -10.5000
  56   2.0000      -0.380830       -10.3629
  57   2.0000      -0.368942       -10.0394
  58   2.0000      -0.362030        -9.8513
  59   2.0000      -0.357374        -9.7246
  60   2.0000      -0.353213        -9.6114
  61   2.0000      -0.350642        -9.5414
  62   2.0000      -0.337735        -9.1902
  63   2.0000      -0.333668        -9.0796
  64   2.0000      -0.328173        -8.9300
  65   2.0000      -0.327722        -8.9178
  66   2.0000      -0.324865        -8.8400
  67   2.0000      -0.321634        -8.7521
  68   2.0000      -0.321122        -8.7382
  69   2.0000      -0.318958        -8.6793
  70   2.0000      -0.316061        -8.6005
  71   2.0000      -0.305712        -8.3188
  72   2.0000      -0.278874        -7.5886
  73   2.0000      -0.275626        -7.5002
  74   2.0000      -0.274471        -7.4687
  75   2.0000      -0.245706        -6.6860
  76   2.0000      -0.218791        -5.9536
  77   0.0000      -0.050265        -1.3678
  78   0.0000      -0.002572        -0.0700
  79   0.0000       0.041232         1.1220
  80   0.0000       0.048202         1.3117
  81   0.0000       0.050602         1.3769

MULLIKEN ATOMIC CHARGES
-----------------------
   0 C :   -0.604881
   1 C :    0.627341
   2 C :    0.627213
   3 C :   -0.039643
   4 C :   -0.063475
   5 C :    0.020703
   6 C :   -0.038039
   7 C :   -0.062798
   8 C :    0.022584
   9 H :   -0.051501
  10 H :   -0.051233
  11 C :    0.042782
  12 H :    0.031046
  13 H :    0.031662
  14 C :   -0.036103
  15 H :    0.015306
  16 H :    0.016994
  17 C :   -0.023702
  18 H :    0.005665
  19 H :    0.005744
  20 C :    0.004044
  21 H :    0.016773
  22 H :    0.016951
  23 C :    0.047920
  24 H :    0.031897
  25 H :    0.031129
  26 C :   -0.032859
  27 H :    0.015203
  28 H :    0.016720
  29 C :    0.013084
  30 H :    0.002244
  31 H :    0.002196
  32 C :   -0.000102
  33 H :    0.000676
  34 H :    0.000782
  35 C :   -0.006780
  36 H :    0.000366
  37 H :    0.000482
  38 C :   -0.033387
  39 H :    0.003872
  40 H :    0.003831
  41 C :   -0.001402
  42 H :    0.015621
  43 H :    0.015690
  44 C :   -0.605233
  45 H :   -0.029641
  46 H :   -0.029639
  47 H :    0.012613
  48 H :    0.011286
Sum of atomic charges:   -0.0000000

LOEWDIN ATOMIC CHARGES
----------------------
   0 C :   -0.050665
   1 C :   -0.001580
   2 C :   -0.001599
   3 C :   -0.051676
   4 C :   -0.006380
   5 C :   -0.004077
   6 C :   -0.051684
   7 C :   -0.006275
   8 C :   -0.004013
   9 H :    0.030166
  10 H :    0.030237
  11 C :   -0.033865
  12 H :    0.039138
  13 H :    0.039466
  14 C :   -0.043655
  15 H :    0.024408
  16 H :    0.024158
  17 C :   -0.046880
  18 H :    0.024101
  19 H :    0.024149
  20 C :   -0.067492
  21 H :    0.025093
  22 H :    0.025195
  23 C :   -0.033410
  24 H :    0.039499
  25 H :    0.039058
  26 C :   -0.042201
  27 H :    0.024503
  28 H :    0.024204
  29 C :   -0.039514
  30 H :    0.022706
  31 H :    0.022750
  32 C :   -0.042384
  33 H :    0.021818
  34 H :    0.021888
  35 C :   -0.043689
  36 H :    0.021484
  37 H :    0.021490
  38 C :   -0.049690
  39 H :    0.022836
  40 H :    0.022826
  41 C :   -0.068188
  42 H :    0.024523
  43 H :    0.024525
  44 C :   -0.050596
  45 H :    0.022653
  46 H :    0.022665
  47 H :    0.027464
  48 H :    0.026510

  Mayer bond orders larger than 0.100000
B(  0-C ,  1-C ) :   2.1188 B(  0-C , 45-H ) :   1.1191 B(  1-C ,  3-C ) :   0.9085
B(  2-C ,  6-C ) :   0.9074 B(  2-C , 44-C ) :   2.1187 B(  3-C ,  4-C ) :   1.3969
B(  3-C ,  8-C ) :   1.3726 B(  4-C ,  5-C ) :   1.4261 B(  4-C , 11-C ) :   1.0900
B(  5-C ,  6-C ) :   1.3738 B(  5-C ,  9-H ) :   0.9215 B(  6-C ,  7-C ) :   1.3970
B(  7-C ,  8-C ) :   1.4262 B(  7-C , 23-C ) :   1.0890 B(  8-C , 10-H ) :   0.9221
B( 11-C , 12-H ) :   0.8984 B( 11-C , 13-H ) :   0.8981 B( 11-C , 14-C ) :   1.1039
B( 14-C , 15-H ) :   0.9305 B( 14-C , 16-H ) :   0.9282 B( 14-C , 17-C ) :   1.0753
B( 17-C , 18-H ) :   0.9411 B( 17-C , 19-H ) :   0.9409 B( 17-C , 20-C ) :   1.1059
B( 20-C , 21-H ) :   0.9662 B( 20-C , 22-H ) :   0.9662 B( 20-C , 47-H ) :   0.9617
B( 23-C , 24-H ) :   0.8969 B( 23-C , 25-H ) :   0.8978 B( 23-C , 26-C ) :   1.1026
B( 26-C , 27-H ) :   0.9281 B( 26-C , 28-H ) :   0.9259 B( 26-C , 29-C ) :   1.0773
B( 29-C , 30-H ) :   0.9339 B( 29-C , 31-H ) :   0.9335 B( 29-C , 32-C ) :   1.0787
B( 32-C , 33-H ) :   0.9354 B( 32-C , 34-H ) :   0.9353 B( 32-C , 35-C ) :   1.0799
B( 35-C , 36-H ) :   0.9383 B( 35-C , 37-H ) :   0.9384 B( 35-C , 38-C ) :   1.0770
B( 38-C , 39-H ) :   0.9429 B( 38-C , 40-H ) :   0.9429 B( 38-C , 41-C ) :   1.1048
B( 41-C , 42-H ) :   0.9671 B( 41-C , 43-H ) :   0.9671 B( 41-C , 48-H ) :   0.9631
B( 44-C , 46-H ) :   1.1192

FINAL SINGLE POINT ENERGY      -816.463466238602

DIPOLE MOMENT
-------------
                                X             Y             Z
Electronic contribution:     17.07776       7.40294       1.39194
Nuclear contribution   :    -17.07721      -7.43049      -1.39627
                        -----------------------------------------
Total Dipole Moment    :      0.00055      -0.02756      -0.00433
                        -----------------------------------------
Magnitude (a.u.)       :      0.02790
Magnitude (Debye)      :      0.07092

Rotational constants in cm-1:     0.021297     0.002874     0.002549
Rotational constants in MHz :   638.466940    86.164965    76.409107

                             ****ORCA TERMINATED NORMALLY****
TOTAL RUN TIME: 0 days 0 hours 22 minutes 35 seconds 920 msec
