 Gaussian 09, Revision D.01,
 Gaussian 09:  ES64L-G09RevD.01 24-Apr-2013

 ---------------------------------------
 #P bmk/6-31+g opt(modredun,calcfc) freq
 ---------------------------------------

 ------------------------------
 Gaussian input prepared by ASE
 ------------------------------
 Symbolic Z-matrix:
 Charge =  0 Multiplicity = 2

 SCF Done:  E(UBMK) =  -928.571811984     A.U. after   28 cycles
 SCF Done:  E(UBMK) =  -928.573238269     A.U. after   26 cycles
 SCF Done:  E(UBMK) =  -928.573240787     A.U. after   15 cycles
 SCF Done:  E(UBMK) =  -928.573240855     A.U. after   12 cycles
 Optimization completed.
    -- Stationary point found.
 Normal termination of Gaussian 09 at Fri May 10 17:08:23 2024.

 ----------------------------------------------------------------
 #P Geom=AllCheck Guess=TCheck SCRF=Check GenChk UBMK/6-31+G Freq
 ----------------------------------------------------------------

 Structure from the checkpoint file:  "g09BDE.chk"
 ------------------------------
 Gaussian input prepared by ASE
 ------------------------------
 Charge =  0 Multiplicity = 2

                         Standard orientation:
 ---------------------------------------------------------------------
 Center     Atomic      Atomic             Coordinates (Angstroms)
 Number     Number       Type             X           Y           Z
 ---------------------------------------------------------------------
      1          6           0       -5.058701    2.816316    0.000328
      2          6           0       -3.934704    2.187647    0.000090
      3          6           0        1.022026   -0.502569   -0.000032
      4          6           0       -2.719175    1.503612    0.000028
      5          6           0       -2.677438    0.054458   -0.000026
      6          6           0       -1.427809   -0.557028   -0.000050
      7          6           0       -0.218409    0.196247   -0.000030
      8          6           0       -0.246076    1.633947    0.000002
      9          6           0       -1.489827    2.249372    0.000036
     10          1           0       -1.343872   -1.639794   -0.000078
     11          1           0       -1.576582    3.332013    0.000071
     12          6           0       -3.982228   -0.725901   -0.000045
     13          1           0       -4.572932   -0.407006   -0.874109
     14          1           0       -4.572953   -0.407015    0.874007
     15          6           0       -3.854143   -2.262451   -0.000051
     16          1           0       -3.289448   -2.594799   -0.886597
     17          1           0       -3.289469   -2.594804    0.886507
     18          6           0       -5.238851   -2.949622   -0.000069
     19          1           0       -5.806934   -2.618038    0.883324
     20          1           0       -5.806902   -2.618057   -0.883489
     21          6           0       -5.130021   -4.489795   -0.000050
     22          1           0       -4.587942   -4.842409    0.889392
     23          1           0       -4.587902   -4.842430   -0.889459
     24          6           0        1.067593    2.405504    0.000007
     25          1           0        1.654746    2.090545    0.878859
     26          1           0        1.654778    2.090500   -0.878806
     27          6           0        0.945168    3.942741   -0.000037
     28          1           0        0.380172    4.274830   -0.885815
     29          1           0        0.380152    4.274884    0.885708
     30          6           0        2.330768    4.627837   -0.000040
     31          1           0        2.898358    4.296752    0.884451
     32          1           0        2.898394    4.296671   -0.884479
     33          6           0        2.223582    6.168236   -0.000113
     34          1           0        1.681125    6.520905    0.888701
     35          1           0        1.681178    6.520823   -0.888993
     36          6           0        2.075328   -1.123048   -0.000019
     37          1           0       -6.123311   -4.958082   -0.000066
     38          1           0        3.217111    6.636075   -0.000106
     39          6           0        3.301199   -1.863988    0.000004
     40          6           0        3.276387   -3.281292    0.000015
     41          6           0        4.475518   -4.005194    0.000044
     42          6           0        5.709918   -3.330464    0.000062
     43          6           0        5.742134   -1.924090    0.000050
     44          6           0        4.548458   -1.190891    0.000022
     45          1           0        6.639107   -3.896208    0.000085
     46          1           0        6.695769   -1.400635    0.000064
     47          1           0        2.318307   -3.796055    0.000002
     48          1           0        4.566002   -0.103541    0.000014
     49          1           0        4.448869   -5.092635    0.000054
 ---------------------------------------------------------------------

 SCF Done:  E(UBMK) =  -928.573240855     A.U. after    2 cycles

 The electronic state is 2-A.
 Alpha  occ. eigenvalues --  -10.55325 -10.54024 -10.53736 -10.52915 -10.52485
 Alpha  occ. eigenvalues --  -10.52375 -10.51660 -10.51649 -10.51635 -10.51472
 Alpha  occ. eigenvalues --  -10.51337 -10.51218 -10.51119 -10.51109 -10.49332
 Alpha  occ. eigenvalues --  -10.49161 -10.48552 -10.48166 -10.47929 -10.47862
 Alpha  occ. eigenvalues --  -10.47614 -10.47413 -10.46659 -10.46435  -0.97675
 Alpha  occ. eigenvalues --   -0.96240  -0.91234  -0.89258  -0.87841  -0.87200
 Alpha  occ. eigenvalues --   -0.85219  -0.84328  -0.82945  -0.81191  -0.79602
 Alpha  occ. eigenvalues --   -0.77870  -0.73246  -0.72564  -0.69978  -0.69671
 Alpha  occ. eigenvalues --   -0.69290  -0.66869  -0.65328  -0.63931  -0.61930
 Alpha  occ. eigenvalues --   -0.58467  -0.58293  -0.55630  -0.54990  -0.54025
 Alpha  occ. eigenvalues --   -0.53524  -0.52848  -0.50869  -0.50392  -0.49682
 Alpha  occ. eigenvalues --   -0.49177  -0.48526  -0.48105  -0.47957  -0.46971
 Alpha  occ. eigenvalues --   -0.46035  -0.45689  -0.44424  -0.43011  -0.42493
 Alpha  occ. eigenvalues --   -0.42159  -0.41791  -0.41615  -0.41377  -0.40341
 Alpha  occ. eigenvalues --   -0.39387  -0.38277  -0.37862  -0.37727  -0.37370
 Alpha  occ. eigenvalues --   -0.37308  -0.36909  -0.35556  -0.33657  -0.31473
 Alpha  occ. eigenvalues --   -0.30624  -0.30087  -0.30042  -0.29211  -0.25237
 Alpha virt. eigenvalues --   -0.06249  -0.00797  -0.00673   0.00254   0.02744
 Alpha virt. eigenvalues --    0.03958   0.04375   0.04883   0.05285   0.05404
 Alpha virt. eigenvalues --    0.05876   0.06340   0.06684   0.06812   0.06861

  Beta  occ. eigenvalues --  -10.54890 -10.54090 -10.53815 -10.52622 -10.52533
  Beta  occ. eigenvalues --  -10.52213 -10.51808 -10.51578 -10.51565 -10.51401
  Beta  occ. eigenvalues --  -10.51272 -10.51233 -10.51155 -10.51139 -10.49324
  Beta  occ. eigenvalues --  -10.48688 -10.48575 -10.48167 -10.47929 -10.47862
  Beta  occ. eigenvalues --  -10.47414 -10.47111 -10.46659 -10.46435  -0.97411
  Beta  occ. eigenvalues --   -0.96185  -0.91008  -0.89121  -0.87794  -0.86943
  Beta  occ. eigenvalues --   -0.85183  -0.84288  -0.82587  -0.81124  -0.78631
  Beta  occ. eigenvalues --   -0.77504  -0.73170  -0.72204  -0.69855  -0.69571
  Beta  occ. eigenvalues --   -0.69258  -0.66756  -0.65316  -0.63880  -0.61864
  Beta  occ. eigenvalues --   -0.58288  -0.58094  -0.55531  -0.54865  -0.54013
  Beta  occ. eigenvalues --   -0.53445  -0.52810  -0.50832  -0.50315  -0.49667
  Beta  occ. eigenvalues --   -0.48916  -0.48460  -0.48090  -0.47815  -0.46955
  Beta  occ. eigenvalues --   -0.45959  -0.45394  -0.43932  -0.42937  -0.42442
  Beta  occ. eigenvalues --   -0.42145  -0.41576  -0.41503  -0.41325  -0.40117
  Beta  occ. eigenvalues --   -0.38479  -0.38267  -0.37856  -0.37710  -0.37362
  Beta  occ. eigenvalues --   -0.37254  -0.36868  -0.33768  -0.33586  -0.31337
  Beta  occ. eigenvalues --   -0.30128  -0.28879  -0.28356  -0.27902
  Beta virt. eigenvalues --   -0.14612  -0.04954  -0.00549   0.00266   0.01052
  Beta virt. eigenvalues --    0.02753   0.03960   0.04389   0.04908   0.05296
  Beta virt. eigenvalues --    0.05411   0.05899   0.06375   0.06700   0.06878

 Mulliken charges and spin densities:
               1          2
     1  C   -0.745167   0.434576
     2  C    0.123261   0.215312
     3  C   -0.474810  -0.094095
     4  C   -0.362510  -0.040143
     5  C    0.338755   0.177519
     6  C   -0.169369  -0.112232
     7  C    0.330136   0.253802
     8  C    0.677233  -0.097443
     9  C   -0.113650   0.159680
    10  H    0.213955   0.003244
    11  H    0.225267  -0.005781
    12  C   -0.336887  -0.072465
    13  H    0.230811   0.008703
    14  H    0.230815   0.008703
    15  C   -0.347781  -0.004253
    16  H    0.187070  -0.000051
    17  H    0.187072  -0.000051
    18  C   -0.219855  -0.002281
    19  H    0.188599  -0.000016
    20  H    0.188598  -0.000016
    21  C   -0.709317  -0.000126
    22  H    0.186853   0.000014
    23  H    0.186852   0.000014
    24  C   -0.422588   0.005730
    25  H    0.217523  -0.002661
    26  H    0.217520  -0.002661
    27  C   -0.778925  -0.005186
    28  H    0.193910   0.000076
    29  H    0.193908   0.000076
    30  C   -0.104563  -0.000596
    31  H    0.183311   0.000016
    32  H    0.183310   0.000016
    33  C   -0.772148   0.000059
    34  H    0.191559  -0.000007
    35  H    0.191558  -0.000007
    36  C   -0.495553   0.130487
    37  H    0.189782  -0.000003
    38  H    0.187707  -0.000005
    39  C    0.351906  -0.042977
    40  C   -0.336435   0.043546
    41  C    0.003362  -0.026997
    42  C   -0.122138   0.051308
    43  C   -0.019422  -0.026909
    44  C   -0.284231   0.047756
    45  H    0.196069  -0.001945
    46  H    0.196904   0.000796
    47  H    0.213107  -0.001658
    48  H    0.211356  -0.001664
    49  H    0.197280   0.000798
 Sum of Mulliken charges =   0.00000   1.00000

 Dipole moment (field-independent basis, Debye):
    X=              8.4311    Y=             -4.8495    Z=             -0.0007  Tot=              9.7263
 Quadrupole moment (field-independent basis, Debye-Ang):
   XX=           -164.3007   YY=           -142.7776   ZZ=           -151.2755
   XY=             24.1577   XZ=              0.0047   YZ=             -0.0024

  Exact polarizability: 546.153-127.870 359.052   0.007  -0.022 162.036
 Approx polarizability: 617.309-158.102 409.927  -0.006   0.005 201.728

                      1                      2                      3
                      A                      A                      A
 Frequencies --     15.6296                18.2352                30.6826
 Red. masses --      4.6583                 3.7632                 3.5885
 Frc consts  --      0.0007                 0.0007                 0.0020
 IR Inten    --      0.0019                 0.5797                 0.6807

                      4                      5                      6
                      A                      A                      A
 Frequencies --     33.2450                47.0830                60.5146
 Red. masses --      4.3991                 3.0145                 3.7549
 Frc consts  --      0.0029                 0.0039                 0.0081
 IR Inten    --      1.1800                 1.8917                 0.1093

                      7                      8                      9
                      A                      A                      A
 Frequencies --     70.7706                84.3016                91.2400
 Red. masses --      2.0229                 5.2445                 3.2158
 Frc consts  --      0.0060                 0.0220                 0.0158
 IR Inten    --      1.7101                 2.2697                 6.0415

                     10                     11                     12
                      A                      A                      A
 Frequencies --     96.1838               112.1878               126.7444
 Red. masses --      2.1544                 6.7318                 1.9688
 Frc consts  --      0.0117                 0.0499                 0.0186
 IR Inten    --      1.4307                 5.7222                 0.1252

                     13                     14                     15
                      A                      A                      A
 Frequencies --    134.4304               146.9076               154.4575
 Red. masses --      1.9975                 4.1766                 2.9727
 Frc consts  --      0.0213                 0.0531                 0.0418
 IR Inten    --      0.9262                 0.4798                 1.1086

                     16                     17                     18
                      A                      A                      A
 Frequencies --    168.0993               199.9182               238.5018
 Red. masses --      4.1942                 4.3703                 4.1451
 Frc consts  --      0.0698                 0.1029                 0.1389
 IR Inten    --      3.0591                 0.8277                 0.1146

                     19                     20                     21
                      A                      A                      A
 Frequencies --    252.8700               260.9137               264.0055
 Red. masses --      2.1023                 1.2783                 4.8303
 Frc consts  --      0.0792                 0.0513                 0.1984
 IR Inten    --      5.4439                 0.5706                 0.7680

                     22                     23                     24
                      A                      A                      A
 Frequencies --    265.6882               285.3436               311.6867
 Red. masses --      1.5458                 3.2328                 4.5245
 Frc consts  --      0.0643                 0.1551                 0.2590
 IR Inten    --      2.3548                 0.2638                 0.0250

                     25                     26                     27
                      A                      A                      A
 Frequencies --    333.4236               393.0551               425.7977
 Red. masses --      5.2396                 4.7498                 2.8372
 Frc consts  --      0.3432                 0.4323                 0.3031
 IR Inten    --      0.4615                 2.6961                 0.0217

                     28                     29                     30
                      A                      A                      A
 Frequencies --    446.7698               451.9678               459.2046
 Red. masses --      3.4353                 3.4557                 3.1390
 Frc consts  --      0.4040                 0.4159                 0.3900
 IR Inten    --      3.6958                 0.3270                 7.1443

                     31                     32                     33
                      A                      A                      A
 Frequencies --    491.4186               493.7813               498.2850
 Red. masses --      7.1873                 3.8616                 6.6103
 Frc consts  --      1.0226                 0.5547                 0.9670
 IR Inten    --      6.0116                 4.6838                 5.2031

                     34                     35                     36
                      A                      A                      A
 Frequencies --    546.6993               583.1606               630.6363
 Red. masses --      7.4487                 5.4617                 3.8386
 Frc consts  --      1.3117                 1.0943                 0.8995
 IR Inten    --      0.5573                 0.8436                 2.6747

                     37                     38                     39
                      A                      A                      A
 Frequencies --    648.3686               649.2511               665.6370
 Red. masses --      6.3465                 6.5129                 6.1927
 Frc consts  --      1.5719                 1.6175                 1.6166
 IR Inten    --      6.0519                 0.8243                 1.1309

                     40                     41                     42
                      A                      A                      A
 Frequencies --    700.2327               730.2549               745.3722
 Red. masses --      3.5158                 1.8203                 1.6083
 Frc consts  --      1.0157                 0.5719                 0.5265
 IR Inten    --      1.8949                36.6285                35.1243

                     43                     44                     45
                      A                      A                      A
 Frequencies --    746.4224               764.5137               771.3057
 Red. masses --      6.3441                 1.1426                 1.4321
 Frc consts  --      2.0825                 0.3935                 0.5020
 IR Inten    --      0.9778                 2.4586                 5.1097

                     46                     47                     48
                      A                      A                      A
 Frequencies --    804.1947               818.4850               820.7629
 Red. masses --      5.7416                 1.2837                 1.3204
 Frc consts  --      2.1878                 0.5067                 0.5241
 IR Inten    --      1.3729                 8.1423                 1.3561

                     49                     50                     51
                      A                      A                      A
 Frequencies --    839.4071               889.4157               902.4500
 Red. masses --      2.2401                 5.0690                 1.2424
 Frc consts  --      0.9300                 2.3625                 0.5961
 IR Inten    --     29.6487                 1.9811                 0.0620

                     52                     53                     54
                      A                      A                      A
 Frequencies --    935.2748               936.2717               943.7968
 Red. masses --      1.7937                 1.7981                 1.2746
 Frc consts  --      0.9244                 0.9287                 0.6689
 IR Inten    --      1.3021                12.5459                 2.0158

                     55                     56                     57
                      A                      A                      A
 Frequencies --    950.3472               988.5786               992.0467
 Red. masses --      1.3173                 1.4620                 1.3021
 Frc consts  --      0.7010                 0.8418                 0.7550
 IR Inten    --      5.9952                 5.2730                 1.8410

                     58                     59                     60
                      A                      A                      A
 Frequencies --    995.6395              1025.8526              1039.8380
 Red. masses --      1.2861                 5.7943                 1.3819
 Frc consts  --      0.7511                 3.5927                 0.8803
 IR Inten    --     18.7950                 4.5915                 0.0105

                     61                     62                     63
                      A                      A                      A
 Frequencies --   1043.5327              1057.1399              1057.2109
 Red. masses --      5.0829                 2.4856                 3.8107
 Frc consts  --      3.2612                 1.6366                 2.5094
 IR Inten    --      0.0061                 6.3541                 2.5438

                     64                     65                     66
                      A                      A                      A
 Frequencies --   1062.9085              1090.1807              1099.0600
 Red. masses --      1.3486                 3.7690                 2.6314
 Frc consts  --      0.8977                 2.6392                 1.8728
 IR Inten    --      0.0075                19.9061                 1.1888

                     67                     68                     69
                      A                      A                      A
 Frequencies --   1110.3116              1115.1469              1143.7213
 Red. masses --      2.6617                 1.6971                 2.1498
 Frc consts  --      1.9333                 1.2434                 1.6569
 IR Inten    --     16.8141                 6.5166                 7.3167

                     70                     71                     72
                      A                      A                      A
 Frequencies --   1151.7735              1159.2054              1161.8643
 Red. masses --      2.2361                 1.4650                 1.4738
 Frc consts  --      1.7477                 1.1599                 1.1722
 IR Inten    --     27.8666                 0.1044                 0.3248

                     73                     74                     75
                      A                      A                      A
 Frequencies --   1194.1567              1215.9709              1219.0173
 Red. masses --      4.4032                 2.8029                 1.1248
 Frc consts  --      3.6995                 2.4417                 0.9848
 IR Inten    --     15.6669               133.5523                 0.2458

                     76                     77                     78
                      A                      A                      A
 Frequencies --   1232.4425              1234.1571              1268.7338
 Red. masses --      1.9269                 1.6491                 1.4130
 Frc consts  --      1.7244                 1.4799                 1.3401
 IR Inten    --     89.8651                52.7534                 0.0011

                     79                     80                     81
                      A                      A                      A
 Frequencies --   1274.2861              1304.0823              1313.3520
 Red. masses --      1.3951                 3.5291                 1.6500
 Frc consts  --      1.3347                 3.5361                 1.6769
 IR Inten    --      0.0052                45.4167                 2.9778

                     82                     83                     84
                      A                      A                      A
 Frequencies --   1314.9512              1325.7147              1329.1162
 Red. masses --      6.1197                 1.5800                 1.1610
 Frc consts  --      6.2345                 1.6361                 1.2084
 IR Inten    --      3.5807                10.5267                 0.0247

                     85                     86                     87
                      A                      A                      A
 Frequencies --   1343.2301              1348.7539              1349.8128
 Red. masses --      1.1542                 1.0755                 1.0646
 Frc consts  --      1.2269                 1.1527                 1.1428
 IR Inten    --      0.1282                 0.8095                 0.8002

                     88                     89                     90
                      A                      A                      A
 Frequencies --   1353.3959              1380.5452              1387.4457
 Red. masses --      2.5721                 1.3895                 1.5617
 Frc consts  --      2.7758                 1.5603                 1.7713
 IR Inten    --     69.4357                 0.5312                 9.0622

                     91                     92                     93
                      A                      A                      A
 Frequencies --   1401.6355              1403.5637              1416.5469
 Red. masses --      1.8197                 1.4900                 1.6648
 Frc consts  --      2.1063                 1.7294                 1.9682
 IR Inten    --      0.5212                 0.7189                 2.2564

                     94                     95                     96
                      A                      A                      A
 Frequencies --   1422.1924              1444.0680              1456.9768
 Red. masses --      1.6066                 3.4361                 1.2177
 Frc consts  --      1.9146                 4.2217                 1.5230
 IR Inten    --      3.0565                31.1075                 6.1669

                     97                     98                     99
                      A                      A                      A
 Frequencies --   1458.6864              1495.1147              1505.6584
 Red. masses --      1.2127                 2.0121                 4.4607
 Frc consts  --      1.5203                 2.6500                 5.9581
 IR Inten    --      9.3618                 7.8938                52.0504

                    100                    101                    102
                      A                      A                      A
 Frequencies --   1514.4157              1520.3940              1539.4036
 Red. masses --      1.1001                 1.1039                 1.0918
 Frc consts  --      1.4866                 1.5034                 1.5244
 IR Inten    --     11.1428                 7.9388                 7.7657

                    103                    104                    105
                      A                      A                      A
 Frequencies --   1539.9880              1542.0638              1542.8607
 Red. masses --      1.0688                 1.1229                 1.0672
 Frc consts  --      1.4934                 1.5732                 1.4968
 IR Inten    --      0.6304                 0.6820                 0.8599

                    106                    107                    108
                      A                      A                      A
 Frequencies --   1544.3046              1552.0605              1552.1768
 Red. masses --      1.8698                 1.0441                 1.0446
 Frc consts  --      2.6273                 1.4819                 1.4828
 IR Inten    --      9.7275                12.6691                13.2744

                    109                    110                    111
                      A                      A                      A
 Frequencies --   1553.4691              1554.5145              1569.6993
 Red. masses --      1.1403                 1.0954                 1.8907
 Frc consts  --      1.6213                 1.5596                 2.7448
 IR Inten    --     55.4285                 0.1551                85.0358

                    112                    113                    114
                      A                      A                      A
 Frequencies --   1615.6172              1634.1135              1647.2688
 Red. masses --      4.7342                 3.6874                 5.0995
 Frc consts  --      7.2806                 5.8014                 8.1528
 IR Inten    --      1.7988               345.9667                26.8886

                    115                    116                    117
                      A                      A                      A
 Frequencies --   1988.2982              2274.1833              3041.9863
 Red. masses --     11.9635                11.9929                 1.0572
 Frc consts  --     27.8657                36.5449                 5.7637
 IR Inten    --    421.8139               615.6312                 6.1875

                    118                    119                    120
                      A                      A                      A
 Frequencies --   3043.7643              3047.3301              3055.9540
 Red. masses --      1.0580                 1.0578                 1.0581
 Frc consts  --      5.7751                 5.7873                 5.8222
 IR Inten    --      1.4452                 1.9019                39.7682

                    121                    122                    123
                      A                      A                      A
 Frequencies --   3057.1849              3063.2188              3068.9944
 Red. masses --      1.0587                 1.0591                 1.0348
 Frc consts  --      5.8302                 5.8552                 5.7426
 IR Inten    --     19.1567                16.9978                31.4670

                    124                    125                    126
                      A                      A                      A
 Frequencies --   3070.8252              3071.7392              3073.7727
 Red. masses --      1.0993                 1.0346                 1.0999
 Frc consts  --      6.1078                 5.7517                 6.1225
 IR Inten    --      2.4869                32.4472                 1.2299

                    127                    128                    129
                      A                      A                      A
 Frequencies --   3081.2096              3091.1616              3107.7312
 Red. masses --      1.1024                 1.1015                 1.1039
 Frc consts  --      6.1663                 6.2014                 6.2817
 IR Inten    --      0.4668                 0.6558                23.6301

                    130                    131                    132
                      A                      A                      A
 Frequencies --   3108.2197              3140.3756              3143.9205
 Red. masses --      1.1052                 1.1014                 1.1013
 Frc consts  --      6.2907                 6.3998                 6.4133
 IR Inten    --     43.5965                53.0452                46.7846

                    133                    134                    135
                      A                      A                      A
 Frequencies --   3153.1150              3153.7050              3229.0584
 Red. masses --      1.0993                 1.0998                 1.0872
 Frc consts  --      6.4394                 6.4446                 6.6788
 IR Inten    --     37.7659                30.4734                 0.1153

                    136                    137                    138
                      A                      A                      A
 Frequencies --   3242.0985              3248.8353              3260.1994
 Red. masses --      1.0889                 1.0926                 1.0951
 Frc consts  --      6.7438                 6.7949                 6.8582
 IR Inten    --      2.2998                15.1960                11.1174

                    139                    140                    141
                      A                      A                      A
 Frequencies --   3265.0086              3268.7873              3277.3598
 Red. masses --      1.0986                 1.0902                 1.0905
 Frc consts  --      6.8999                 6.8635                 6.9014
 IR Inten    --     10.0729                 3.2526                 0.9930

 - Thermochemistry -
 -------------------
 Temperature   298.150 Kelvin.  Pressure   1.00000 Atm.
 Atom     1 has atomic number  6 and mass  12.00000

 Molecular mass:   313.19563 amu.
 Principal axes and moments of inertia in atomic units:
                           1         2         3
     Eigenvalues --  9354.68285********************
           X            0.99453   0.10448   0.00000
           Y           -0.10448   0.99453   0.00000
           Z            0.00000   0.00000   1.00000
 This molecule is an asymmetric top.
 Rotational symmetry number  1.
 Warning -- assumption of classical behavior for rotation
           may cause significant error
 Rotational temperatures (Kelvin)      0.00926     0.00622     0.00373
 Rotational constants (GHZ):           0.19292     0.12959     0.07782
 Zero-point vibrational energy    1107883.2 (Joules/Mol)
                                  264.79044 (Kcal/Mol)
 Warning -- explicit consideration of  35 degrees of freedom as
           vibrations may cause significant error
 Vibrational temperatures:     22.49    26.24    44.15    47.83    67.74
          (Kelvin)             87.07   101.82   121.29   131.27   138.39
                              161.41   182.36   193.42   211.37   222.23
                              241.86   287.64   343.15   363.82   375.40
                              379.84   382.27   410.55   448.45   479.72
                              565.52   612.63   642.80   650.28   660.69
                              707.04   710.44   716.92   786.58   839.04
                              907.34   932.86   934.13   957.70  1007.48
                             1050.67  1072.42  1073.93  1099.96  1109.74
                             1157.06  1177.62  1180.89  1207.72  1279.67
                             1298.42  1345.65  1347.08  1357.91  1367.34
                             1422.34  1427.33  1432.50  1475.97  1496.09
                             1501.41  1520.99  1521.09  1529.29  1568.52
                             1581.30  1597.49  1604.45  1645.56  1657.14
                             1667.84  1671.66  1718.12  1749.51  1753.89
                             1773.21  1775.67  1825.42  1833.41  1876.28
                             1889.62  1891.92  1907.41  1912.30  1932.61
                             1940.55  1942.08  1947.23  1986.29  1996.22
                             2016.64  2019.41  2038.09  2046.22  2077.69
                             2096.26  2098.72  2151.13  2166.30  2178.90
                             2187.51  2214.86  2215.70  2218.68  2219.83
                             2221.91  2233.07  2233.23  2235.09  2236.60
                             2258.44  2324.51  2351.12  2370.05  2860.71
                             3272.04  4376.73  4379.29  4384.42  4396.83
                             4398.60  4407.28  4415.59  4418.23  4419.54
                             4422.47  4433.17  4447.49  4471.33  4472.03
                             4518.29  4523.39  4536.62  4537.47  4645.89
                             4664.65  4674.34  4690.69  4697.61  4703.05
                             4715.38

 Zero-point correction=                           0.421970 (Hartree/Particle)
 Thermal correction to Energy=                    0.446143
 Thermal correction to Enthalpy=                  0.447087
 Thermal correction to Gibbs Free Energy=         0.363434
 Sum of electronic and zero-point Energies=           -928.151270
 Sum of electronic and thermal Energies=              -928.127098
 Sum of electronic and thermal Enthalpies=            -928.126154
 Sum of electronic and thermal Free Energies=         -928.209807

                     E (Thermal)             CV                S
                      KCal/Mol        Cal/Mol-Kelvin    Cal/Mol-Kelvin
 Total                  279.959             88.822            176.062
 Electronic               0.000              0.000              1.377
 Translational            0.889              2.981             43.121
 Rotational               0.889              2.981             36.356
 Vibrational            278.181             82.861             95.207
 Vibration     1          0.593              1.986              7.124
 Vibration     2          0.593              1.986              6.818
 Vibration     3          0.594              1.984              5.785
 Vibration     4          0.594              1.983              5.626
 Vibration     5          0.595              1.979              4.936
 Vibration     6          0.597              1.973              4.440
 Vibration     7          0.598              1.968              4.132
 Vibration     8          0.601              1.960              3.788
 Vibration     9          0.602              1.955              3.633
 Vibration    10          0.603              1.952              3.530
 Vibration    11          0.607              1.939              3.231
 Vibration    12          0.611              1.926              2.995
 Vibration    13          0.613              1.919              2.882
 Vibration    14          0.617              1.906              2.712
 Vibration    15          0.620              1.898              2.617
 Vibration    16          0.625              1.882              2.457
 Vibration    17          0.638              1.840              2.134
 Vibration    18          0.656              1.782              1.814
 Vibration    19          0.664              1.758              1.710
 Vibration    20          0.669              1.744              1.656
 Vibration    21          0.671              1.739              1.635
 Vibration    22          0.672              1.736              1.624
 Vibration    23          0.683              1.701              1.501
 Vibration    24          0.700              1.651              1.353
 Vibration    25          0.715              1.609              1.243
 Vibration    26          0.760              1.485              0.989
 Vibration    27          0.788              1.414              0.872
 Vibration    28          0.806              1.368              0.806
 Vibration    29          0.811              1.357              0.790
 Vibration    30          0.817              1.341              0.768
 Vibration    31          0.847              1.269              0.680
 Vibration    32          0.849              1.264              0.674
 Vibration    33          0.854              1.254              0.662
 Vibration    34          0.902              1.147              0.551
 Vibration    35          0.940              1.068              0.480

 Optimization completed.
    -- Stationary point found.
 Normal termination of Gaussian 09 at Fri May 10 18:18:52 2024.
