                         Program Version 5.0.4 -  RELEASE  -
|  1> ! B3LYP cc-pVDZ AUTOAUX
|  2> %pal nprocs 16 end
|  3> *XYZFile 0 2 opt.xyz
|  4> %EPRNMR
|  5>         GTENSOR   TRUE
|  6>         NUCLEI    = ALL H {SHIFT, AISO, ADIP, AORB}
|  7>         ORI       GIAO
|  8> END
|  9>
| 10>                          ****END OF INPUT****

CARTESIAN COORDINATES (ANGSTROEM)
---------------------------------
  C     -4.052268    0.115614   -0.001692
  C     -2.836565    0.052160   -0.003421
  C      2.842829   -0.004216   -0.002352
  C     -1.410014    0.002656   -0.003149
  C     -0.708139   -1.258090   -0.002726
  C      0.713185   -1.192512   -0.002392
  C      1.414143    0.016922   -0.002570
  C      0.706182    1.260759   -0.003012
  C     -0.689438    1.209567   -0.003370
  H      1.288191   -2.118709   -0.002058
  H     -1.263059    2.136269   -0.003793
  C     -1.396801   -2.492011   -0.002645
  H     -2.489358   -2.454708   -0.003064
  C     -0.741126   -3.840380   -0.002172
  H     -0.069922   -3.936290   -0.880793
  H     -0.068807   -3.935156    0.875698
  C     -1.739120   -5.005603   -0.000787
  H     -2.397379   -4.914277    0.882428
  H     -2.398569   -4.915385   -0.883231
  C     -1.061646   -6.377131   -0.000385
  H     -0.420496   -6.507557    0.888639
  H     -0.421640   -6.508641   -0.890074
  C      1.479774    2.562726   -0.003141
  H      2.157489    2.561725    0.871211
  H      2.158029    2.561237   -0.877070
  C      0.660782    3.856198   -0.003729
  H     -0.002282    3.880554   -0.888104
  H     -0.002671    3.881100    0.880341
  C      1.541048    5.111788   -0.003930
  H      2.207161    5.089300    0.878622
  H      2.207254    5.088941   -0.886402
  C      0.734674    6.412803   -0.004240
  H      0.084530    6.481508    0.885049
  H      0.084510    6.481072   -0.893549
  C      4.064589   -0.029084   -0.003390
  H     -5.122850    0.176841    0.002017
  H     -1.802776   -7.192512    0.000594
  H      1.393262    7.296517   -0.004468
  C      5.492574   -0.059283   -0.003026
  C      6.185759   -1.289431   -0.002819
  C      7.580089   -1.313817   -0.002390
  C      8.308273   -0.118677   -0.002188
  C      7.631219    1.106277   -0.002419
  C      6.237203    1.140549   -0.002850
  H      9.400533   -0.141833   -0.001853
  H      8.194107    2.042827   -0.002269
  H      5.615401   -2.220203   -0.002988
  H      5.707015    2.094785   -0.003040
  H      8.103468   -2.273007   -0.002217

 Total Charge           Charge          ....    0
 Multiplicity           Mult            ....    2
 Number of Electrons    NEL             ....  169
 Basis Dimension        Dim             ....  461

ORBITAL ENERGIES
----------------
                 SPIN UP ORBITALS
  NO   OCC          E(Eh)            E(eV)
   0   1.0000     -10.216696      -278.0104
   1   1.0000     -10.213387      -277.9204
   2   1.0000     -10.211962      -277.8816
   3   1.0000     -10.202182      -277.6155
   4   1.0000     -10.198385      -277.5122
   5   1.0000     -10.197353      -277.4841
   6   1.0000     -10.197235      -277.4809
   7   1.0000     -10.196253      -277.4541
   8   1.0000     -10.195744      -277.4403
   9   1.0000     -10.195535      -277.4346
  10   1.0000     -10.194300      -277.4010
  11   1.0000     -10.192094      -277.3410
  12   1.0000     -10.190123      -277.2873
  13   1.0000     -10.189775      -277.2779
  14   1.0000     -10.189425      -277.2683
  15   1.0000     -10.187965      -277.2286
  16   1.0000     -10.187775      -277.2235
  17   1.0000     -10.186939      -277.2007
  18   1.0000     -10.185099      -277.1506
  19   1.0000     -10.183599      -277.1098
  20   1.0000     -10.182044      -277.0675
  21   1.0000     -10.181737      -277.0591
  22   1.0000     -10.176958      -276.9291
  23   1.0000     -10.175687      -276.8945
  24   1.0000      -0.873762       -23.7763
  25   1.0000      -0.863466       -23.4961
  26   1.0000      -0.819939       -22.3117
  27   1.0000      -0.797953       -21.7134
  28   1.0000      -0.796646       -21.6778
  29   1.0000      -0.778317       -21.1791
  30   1.0000      -0.767835       -20.8938
  31   1.0000      -0.751178       -20.4406
  32   1.0000      -0.744224       -20.2514
  33   1.0000      -0.729986       -19.8639
  34   1.0000      -0.713916       -19.4266
  35   1.0000      -0.697707       -18.9856
  36   1.0000      -0.656575       -17.8663
  37   1.0000      -0.643562       -17.5122
  38   1.0000      -0.620139       -16.8749
  39   1.0000      -0.611568       -16.6416
  40   1.0000      -0.609238       -16.5782
  41   1.0000      -0.592439       -16.1211
  42   1.0000      -0.579904       -15.7800
  43   1.0000      -0.561730       -15.2855
  44   1.0000      -0.541212       -14.7271
  45   1.0000      -0.529742       -14.4150
  46   1.0000      -0.507101       -13.7989
  47   1.0000      -0.489860       -13.3298
  48   1.0000      -0.480591       -13.0775
  49   1.0000      -0.476049       -12.9540
  50   1.0000      -0.470796       -12.8110
  51   1.0000      -0.462022       -12.5722
  52   1.0000      -0.457955       -12.4616
  53   1.0000      -0.437269       -11.8987
  54   1.0000      -0.431749       -11.7485
  55   1.0000      -0.429236       -11.6801
  56   1.0000      -0.426045       -11.5933
  57   1.0000      -0.424474       -11.5505
  58   1.0000      -0.422004       -11.4833
  59   1.0000      -0.411812       -11.2060
  60   1.0000      -0.398183       -10.8351
  61   1.0000      -0.397807       -10.8249
  62   1.0000      -0.383684       -10.4406
  63   1.0000      -0.378471       -10.2987
  64   1.0000      -0.377412       -10.2699
  65   1.0000      -0.365166        -9.9367
  66   1.0000      -0.361670        -9.8415
  67   1.0000      -0.356502        -9.7009
  68   1.0000      -0.354260        -9.6399
  69   1.0000      -0.350718        -9.5435
  70   1.0000      -0.340258        -9.2589
  71   1.0000      -0.332442        -9.0462
  72   1.0000      -0.332073        -9.0362
  73   1.0000      -0.330391        -8.9904
  74   1.0000      -0.327762        -8.9189
  75   1.0000      -0.324248        -8.8232
  76   1.0000      -0.321832        -8.7575
  77   1.0000      -0.297301        -8.0900
  78   1.0000      -0.275202        -7.4886
  79   1.0000      -0.273477        -7.4417
  80   1.0000      -0.268652        -7.3104
  81   1.0000      -0.258819        -7.0428
  82   1.0000      -0.255679        -6.9574
  83   1.0000      -0.214613        -5.8399
  84   1.0000      -0.173096        -4.7102
  85   0.0000      -0.060137        -1.6364
  86   0.0000      -0.010505        -0.2859
  87   0.0000      -0.008903        -0.2423
  88   0.0000       0.016561         0.4507
  89   0.0000       0.041848         1.1387

                 SPIN DOWN ORBITALS
  NO   OCC          E(Eh)            E(eV)
   0   1.0000     -10.216561      -278.0068
   1   1.0000     -10.213528      -277.9242
   2   1.0000     -10.209982      -277.8277
   3   1.0000     -10.200822      -277.5785
   4   1.0000     -10.198758      -277.5223
   5   1.0000     -10.197489      -277.4878
   6   1.0000     -10.197372      -277.4846
   7   1.0000     -10.196348      -277.4567
   8   1.0000     -10.195690      -277.4388
   9   1.0000     -10.195522      -277.4343
  10   1.0000     -10.191697      -277.3302
  11   1.0000     -10.191207      -277.3169
  12   1.0000     -10.190179      -277.2889
  13   1.0000     -10.190026      -277.2847
  14   1.0000     -10.188649      -277.2472
  15   1.0000     -10.187700      -277.2214
  16   1.0000     -10.187142      -277.2062
  17   1.0000     -10.183828      -277.1160
  18   1.0000     -10.183560      -277.1088
  19   1.0000     -10.182051      -277.0677
  20   1.0000     -10.182044      -277.0675
  21   1.0000     -10.181734      -277.0591
  22   1.0000     -10.176966      -276.9293
  23   1.0000     -10.175688      -276.8946
  24   1.0000      -0.870398       -23.6847
  25   1.0000      -0.863533       -23.4979
  26   1.0000      -0.814992       -22.1771
  27   1.0000      -0.796721       -21.6799
  28   1.0000      -0.794172       -21.6105
  29   1.0000      -0.777947       -21.1690
  30   1.0000      -0.765709       -20.8360
  31   1.0000      -0.751319       -20.4444
  32   1.0000      -0.742984       -20.2176
  33   1.0000      -0.726386       -19.7660
  34   1.0000      -0.712222       -19.3805
  35   1.0000      -0.695393       -18.9226
  36   1.0000      -0.653567       -17.7845
  37   1.0000      -0.641827       -17.4650
  38   1.0000      -0.617147       -16.7934
  39   1.0000      -0.609342       -16.5810
  40   1.0000      -0.608752       -16.5650
  41   1.0000      -0.591510       -16.0958
  42   1.0000      -0.578308       -15.7366
  43   1.0000      -0.558721       -15.2036
  44   1.0000      -0.540564       -14.7095
  45   1.0000      -0.528006       -14.3678
  46   1.0000      -0.504090       -13.7170
  47   1.0000      -0.488270       -13.2865
  48   1.0000      -0.479810       -13.0563
  49   1.0000      -0.475157       -12.9297
  50   1.0000      -0.469948       -12.7879
  51   1.0000      -0.458538       -12.4775
  52   1.0000      -0.458013       -12.4632
  53   1.0000      -0.436849       -11.8873
  54   1.0000      -0.429955       -11.6997
  55   1.0000      -0.427950       -11.6451
  56   1.0000      -0.424915       -11.5625
  57   1.0000      -0.424467       -11.5503
  58   1.0000      -0.419384       -11.4120
  59   1.0000      -0.411293       -11.1919
  60   1.0000      -0.396693       -10.7946
  61   1.0000      -0.390540       -10.6271
  62   1.0000      -0.383139       -10.4258
  63   1.0000      -0.376151       -10.2356
  64   1.0000      -0.374180       -10.1820
  65   1.0000      -0.364025        -9.9056
  66   1.0000      -0.361615        -9.8401
  67   1.0000      -0.355667        -9.6782
  68   1.0000      -0.351164        -9.5557
  69   1.0000      -0.350749        -9.5444
  70   1.0000      -0.337993        -9.1973
  71   1.0000      -0.331907        -9.0316
  72   1.0000      -0.330684        -8.9984
  73   1.0000      -0.328124        -8.9287
  74   1.0000      -0.327401        -8.9090
  75   1.0000      -0.323426        -8.8009
  76   1.0000      -0.321471        -8.7477
  77   1.0000      -0.294149        -8.0042
  78   1.0000      -0.272849        -7.4246
  79   1.0000      -0.268477        -7.3056
  80   1.0000      -0.261332        -7.1112
  81   1.0000      -0.259215        -7.0536
  82   1.0000      -0.252336        -6.8664
  83   1.0000      -0.207346        -5.6422
  84   0.0000      -0.082828        -2.2539
  85   0.0000      -0.052293        -1.4230
  86   0.0000      -0.010852        -0.2953
  87   0.0000      -0.007245        -0.1971
  88   0.0000       0.034242         0.9318

MULLIKEN ATOMIC CHARGES AND SPIN POPULATIONS
--------------------------------------------
   0 C :   -0.605757    0.101151
   1 C :    0.633774   -0.059709
   2 C :    0.265344    0.029362
   3 C :   -0.049811    0.227661
   4 C :    0.081525   -0.166579
   5 C :   -0.030392    0.220601
   6 C :   -0.141480   -0.104987
   7 C :   -0.087212    0.235810
   8 C :    0.026235   -0.117565
   9 H :   -0.053093   -0.009142
  10 H :   -0.051065    0.004235
  11 C :   -0.098740    0.707543
  12 H :   -0.021762   -0.030143
  13 C :    0.033138   -0.048507
  14 H :    0.028968    0.031833
  15 H :    0.028974    0.031765
  16 C :   -0.038587    0.002288
  17 H :    0.013129    0.000473
  18 H :    0.013138    0.000467
  19 C :    0.005486   -0.000182
  20 H :    0.017385    0.000155
  21 H :    0.017390    0.000155
  22 C :    0.039204   -0.018726
  23 H :    0.032103    0.010069
  24 H :    0.032104    0.010066
  25 C :   -0.034531    0.000865
  26 H :    0.017136    0.000181
  27 H :    0.017126    0.000181
  28 C :   -0.025091    0.000024
  29 H :    0.005411    0.000053
  30 H :    0.005417    0.000053
  31 C :    0.003270   -0.000081
  32 H :    0.017597    0.000024
  33 H :    0.017596    0.000024
  34 C :    0.132690   -0.044875
  35 H :   -0.030567   -0.004050
  36 H :    0.013611   -0.000204
  37 H :    0.012545   -0.000005
  38 C :   -0.254314    0.009440
  39 C :    0.030615   -0.009843
  40 C :    0.040202    0.004768
  41 C :    0.032954   -0.010482
  42 C :    0.039907    0.004758
  43 C :    0.027961   -0.009811
  44 H :   -0.026758    0.000448
  45 H :   -0.026837   -0.000165
  46 H :   -0.040072    0.000394
  47 H :   -0.039101    0.000370
  48 H :   -0.026766   -0.000165
Sum of atomic charges         :   -0.0000000

LOEWDIN ATOMIC CHARGES AND SPIN POPULATIONS
-------------------------------------------
   0 C :   -0.052701    0.080965
   1 C :   -0.002748   -0.023402
   2 C :   -0.015923    0.015401
   3 C :   -0.041927    0.162841
   4 C :   -0.039964   -0.070539
   5 C :    0.009578    0.166929
   6 C :   -0.051819   -0.057782
   7 C :   -0.005136    0.174487
   8 C :   -0.007526   -0.064212
   9 H :    0.028231    0.000909
  10 H :    0.030801   -0.000482
  11 C :    0.013769    0.581822
  12 H :    0.023055    0.003353
  13 C :   -0.054824    0.005521
  14 H :    0.034342    0.024854
  15 H :    0.034326    0.024798
  16 C :   -0.045891    0.001170
  17 H :    0.025953    0.000301
  18 H :    0.025954    0.000298
  19 C :   -0.067778   -0.000043
  20 H :    0.025488    0.000250
  21 H :    0.025488    0.000250
  22 C :   -0.035643    0.002194
  23 H :    0.038837    0.007920
  24 H :    0.038837    0.007917
  25 C :   -0.043506    0.000160
  26 H :    0.024732    0.000060
  27 H :    0.024730    0.000060
  28 C :   -0.047333    0.000017
  29 H :    0.023806    0.000090
  30 H :    0.023808    0.000090
  31 C :   -0.067571   -0.000038
  32 H :    0.025397    0.000016
  33 H :    0.025397    0.000016
  34 C :   -0.022433   -0.032404
  35 H :    0.022106    0.000149
  36 H :    0.028353   -0.000112
  37 H :    0.027411   -0.000007
  38 C :   -0.053477    0.004222
  39 C :   -0.001181   -0.007687
  40 C :   -0.023677    0.002792
  41 C :   -0.021142   -0.008206
  42 C :   -0.023820    0.002787
  43 C :   -0.002073   -0.007670
  44 H :    0.028360   -0.000048
  45 H :    0.029495    0.000024
  46 H :    0.030169   -0.000025
  47 H :    0.030118   -0.000030
  48 H :    0.029553    0.000024

  Mayer bond orders larger than 0.100000
B(  0-C ,  1-C ) :   2.0958 B(  0-C , 35-H ) :   1.1196 B(  1-C ,  3-C ) :   0.9055
B(  2-C ,  6-C ) :   0.8780 B(  2-C , 34-C ) :   1.7567 B(  2-C , 38-C ) :  -0.1757
B(  3-C ,  4-C ) :   1.2776 B(  3-C ,  8-C ) :   1.3922 B(  4-C ,  5-C ) :   1.2893
B(  4-C , 11-C ) :   1.3668 B(  5-C ,  6-C ) :   1.4467 B(  5-C ,  9-H ) :   0.9195
B(  6-C ,  7-C ) :   1.3493 B(  7-C ,  8-C ) :   1.4162 B(  7-C , 22-C ) :   1.0954
B(  8-C , 10-H ) :   0.9199 B( 11-C , 12-H ) :   0.9016 B( 11-C , 13-C ) :   1.0839
B( 13-C , 14-H ) :   0.9117 B( 13-C , 15-H ) :   0.9117 B( 13-C , 16-C ) :   1.0715
B( 16-C , 17-H ) :   0.9438 B( 16-C , 18-H ) :   0.9437 B( 16-C , 19-C ) :   1.1066
B( 19-C , 20-H ) :   0.9653 B( 19-C , 21-H ) :   0.9653 B( 19-C , 36-H ) :   0.9609
B( 22-C , 23-H ) :   0.8960 B( 22-C , 24-H ) :   0.8961 B( 22-C , 25-C ) :   1.1040
B( 25-C , 26-H ) :   0.9293 B( 25-C , 27-H ) :   0.9293 B( 25-C , 28-C ) :   1.0749
B( 28-C , 29-H ) :   0.9409 B( 28-C , 30-H ) :   0.9409 B( 28-C , 31-C ) :   1.1063
B( 31-C , 32-H ) :   0.9662 B( 31-C , 33-H ) :   0.9662 B( 31-C , 37-H ) :   0.9616
B( 34-C , 38-C ) :   0.9300 B( 38-C , 39-C ) :   1.4425 B( 38-C , 43-C ) :   1.4395
B( 39-C , 40-C ) :   1.4701 B( 39-C , 46-H ) :   0.9400 B( 40-C , 41-C ) :   1.4448
B( 40-C , 48-H ) :   0.9379 B( 41-C , 42-C ) :   1.4441 B( 41-C , 44-H ) :   0.9432
B( 42-C , 43-C ) :   1.4705 B( 42-C , 45-H ) :   0.9379 B( 43-C , 47-H ) :   0.9404

FINAL SINGLE POINT ENERGY      -928.901286878674

DIPOLE MOMENT
-------------
                                X             Y             Z
Electronic contribution:      9.45033      -2.44919      -0.00478
Nuclear contribution   :     -9.07844       2.40891       0.00614
                        -----------------------------------------
Total Dipole Moment    :      0.37189      -0.04028       0.00137
                        -----------------------------------------
Magnitude (a.u.)       :      0.37407
Magnitude (Debye)      :      0.95082

Rotational constants in cm-1:     0.006649     0.004192     0.002580
Rotational constants in MHz :   199.340829   125.673366    77.338746

CHEMICAL SHIELDING SUMMARY (ppm)  --  Orbital contribution
----------------------------------------------------------

  Nucleus  Element    Isotropic     Anisotropy
  -------  -------  ------------   ------------
      9       H           24.437         11.640
     10       H           24.454         12.207
     12       H           25.331         11.518
     14       H           28.973          4.260
     15       H           28.973          4.261
     17       H           29.688          6.658
     18       H           29.687          6.661
     20       H           30.320          7.763
     21       H           30.320          7.763
     23       H           28.665          5.768
     24       H           28.665          5.773
     26       H           29.824          4.814
     27       H           29.824          4.814
     29       H           29.865          6.231
     30       H           29.865          6.231
     32       H           30.303          7.955
     33       H           30.303          7.954
     35       H           28.071         10.158
     36       H           30.098         10.090
     37       H           30.097         10.243
     44       H           24.234          4.448
     45       H           24.200          5.471
     46       H           24.027          7.705
     47       H           24.012          7.750
     48       H           24.190          5.151

                             ****ORCA TERMINATED NORMALLY****
TOTAL RUN TIME: 0 days 1 hours 21 minutes 5 seconds 505 msec
