                         Program Version 5.0.4 -  RELEASE  -
|  1> ! B3LYP cc-pVDZ AUTOAUX
|  2> %pal nprocs 16 end
|  3> *XYZFile 0 2 opt.xyz
|  4> %EPRNMR
|  5>         GTENSOR   TRUE
|  6>         NUCLEI    = ALL H {SHIFT, AISO, ADIP, AORB}
|  7>         ORI       GIAO
|  8> END
|  9>
| 10>                          ****END OF INPUT****

CARTESIAN COORDINATES (ANGSTROEM)
---------------------------------
  C     -4.052268    0.115614   -0.001692
  C     -2.836565    0.052160   -0.003421
  C      2.842829   -0.004216   -0.002352
  C     -1.410014    0.002656   -0.003149
  C     -0.708139   -1.258090   -0.002726
  C      0.713185   -1.192512   -0.002392
  C      1.414143    0.016922   -0.002570
  C      0.706182    1.260759   -0.003012
  C     -0.689438    1.209567   -0.003370
  H      1.288191   -2.118709   -0.002058
  H     -1.263059    2.136269   -0.003793
  C     -1.396801   -2.492011   -0.002645
  H     -2.489358   -2.454708   -0.003064
  C     -0.741126   -3.840380   -0.002172
  H     -0.069922   -3.936290   -0.880793
  H     -0.068807   -3.935156    0.875698
  C     -1.739120   -5.005603   -0.000787
  H     -2.397379   -4.914277    0.882428
  H     -2.398569   -4.915385   -0.883231
  C     -1.061646   -6.377131   -0.000385
  H     -0.420496   -6.507557    0.888639
  H     -0.421640   -6.508641   -0.890074
  C      1.479774    2.562726   -0.003141
  H      2.157489    2.561725    0.871211
  H      2.158029    2.561237   -0.877070
  C      0.660782    3.856198   -0.003729
  H     -0.002282    3.880554   -0.888104
  H     -0.002671    3.881100    0.880341
  C      1.541048    5.111788   -0.003930
  H      2.207161    5.089300    0.878622
  H      2.207254    5.088941   -0.886402
  C      0.734674    6.412803   -0.004240
  H      0.084530    6.481508    0.885049
  H      0.084510    6.481072   -0.893549
  C      4.064589   -0.029084   -0.003390
  H     -5.122850    0.176841    0.002017
  H     -1.802776   -7.192512    0.000594
  H      1.393262    7.296517   -0.004468
  C      5.492574   -0.059283   -0.003026
  C      6.185759   -1.289431   -0.002819
  C      7.580089   -1.313817   -0.002390
  C      8.308273   -0.118677   -0.002188
  C      7.631219    1.106277   -0.002419
  C      6.237203    1.140549   -0.002850
  H      9.400533   -0.141833   -0.001853
  H      8.194107    2.042827   -0.002269
  H      5.615401   -2.220203   -0.002988
  H      5.707015    2.094785   -0.003040
  H      8.103468   -2.273007   -0.002217

 Total Charge           Charge          ....    0
 Multiplicity           Mult            ....    2
 Number of Electrons    NEL             ....  169
 Basis Dimension        Dim             ....  461

ORBITAL ENERGIES
----------------
                 SPIN UP ORBITALS
  NO   OCC          E(Eh)            E(eV)
   0   1.0000     -10.216696      -278.0104
   1   1.0000     -10.213299      -277.9180
   2   1.0000     -10.212150      -277.8867
   3   1.0000     -10.202334      -277.6196
   4   1.0000     -10.198286      -277.5095
   5   1.0000     -10.197340      -277.4837
   6   1.0000     -10.197215      -277.4803
   7   1.0000     -10.196146      -277.4512
   8   1.0000     -10.195680      -277.4386
   9   1.0000     -10.195451      -277.4323
  10   1.0000     -10.194360      -277.4026
  11   1.0000     -10.192005      -277.3386
  12   1.0000     -10.190109      -277.2870
  13   1.0000     -10.189808      -277.2788
  14   1.0000     -10.189407      -277.2679
  15   1.0000     -10.187932      -277.2277
  16   1.0000     -10.187806      -277.2243
  17   1.0000     -10.187008      -277.2026
  18   1.0000     -10.185091      -277.1504
  19   1.0000     -10.183576      -277.1092
  20   1.0000     -10.182034      -277.0672
  21   1.0000     -10.181737      -277.0592
  22   1.0000     -10.176961      -276.9292
  23   1.0000     -10.175688      -276.8946
  24   1.0000      -0.873790       -23.7770
  25   1.0000      -0.863433       -23.4952
  26   1.0000      -0.819947       -22.3119
  27   1.0000      -0.797951       -21.7133
  28   1.0000      -0.796658       -21.6782
  29   1.0000      -0.778291       -21.1784
  30   1.0000      -0.767837       -20.8939
  31   1.0000      -0.751147       -20.4397
  32   1.0000      -0.744235       -20.2517
  33   1.0000      -0.729989       -19.8640
  34   1.0000      -0.713924       -19.4269
  35   1.0000      -0.697711       -18.9857
  36   1.0000      -0.656580       -17.8665
  37   1.0000      -0.643568       -17.5124
  38   1.0000      -0.620133       -16.8747
  39   1.0000      -0.611570       -16.6417
  40   1.0000      -0.609205       -16.5773
  41   1.0000      -0.592436       -16.1210
  42   1.0000      -0.579905       -15.7800
  43   1.0000      -0.561733       -15.2855
  44   1.0000      -0.541202       -14.7269
  45   1.0000      -0.529747       -14.4152
  46   1.0000      -0.507120       -13.7994
  47   1.0000      -0.489862       -13.3298
  48   1.0000      -0.480586       -13.0774
  49   1.0000      -0.476048       -12.9539
  50   1.0000      -0.470815       -12.8115
  51   1.0000      -0.462007       -12.5718
  52   1.0000      -0.457917       -12.4606
  53   1.0000      -0.437247       -11.8981
  54   1.0000      -0.431751       -11.7485
  55   1.0000      -0.429245       -11.6803
  56   1.0000      -0.426042       -11.5932
  57   1.0000      -0.424448       -11.5498
  58   1.0000      -0.422034       -11.4841
  59   1.0000      -0.411819       -11.2062
  60   1.0000      -0.398171       -10.8348
  61   1.0000      -0.397815       -10.8251
  62   1.0000      -0.383676       -10.4404
  63   1.0000      -0.378474       -10.2988
  64   1.0000      -0.377401       -10.2696
  65   1.0000      -0.365175        -9.9369
  66   1.0000      -0.361640        -9.8407
  67   1.0000      -0.356506        -9.7010
  68   1.0000      -0.354268        -9.6401
  69   1.0000      -0.350687        -9.5427
  70   1.0000      -0.340243        -9.2585
  71   1.0000      -0.332427        -9.0458
  72   1.0000      -0.332093        -9.0367
  73   1.0000      -0.330382        -8.9901
  74   1.0000      -0.327770        -8.9191
  75   1.0000      -0.324273        -8.8239
  76   1.0000      -0.321842        -8.7578
  77   1.0000      -0.297290        -8.0897
  78   1.0000      -0.275194        -7.4884
  79   1.0000      -0.273469        -7.4415
  80   1.0000      -0.268679        -7.3111
  81   1.0000      -0.258789        -7.0420
  82   1.0000      -0.255689        -6.9576
  83   1.0000      -0.214623        -5.8402
  84   1.0000      -0.173092        -4.7101
  85   0.0000      -0.060140        -1.6365
  86   0.0000      -0.010476        -0.2851
  87   0.0000      -0.008902        -0.2422
  88   0.0000       0.016564         0.4507
  89   0.0000       0.041841         1.1385

                 SPIN DOWN ORBITALS
  NO   OCC          E(Eh)            E(eV)
   0   1.0000     -10.216554      -278.0066
   1   1.0000     -10.213728      -277.9297
   2   1.0000     -10.209885      -277.8251
   3   1.0000     -10.200729      -277.5759
   4   1.0000     -10.198901      -277.5262
   5   1.0000     -10.197483      -277.4876
   6   1.0000     -10.197358      -277.4842
   7   1.0000     -10.196239      -277.4538
   8   1.0000     -10.195621      -277.4369
   9   1.0000     -10.195442      -277.4321
  10   1.0000     -10.191691      -277.3300
  11   1.0000     -10.191256      -277.3182
  12   1.0000     -10.190170      -277.2886
  13   1.0000     -10.189998      -277.2839
  14   1.0000     -10.188616      -277.2463
  15   1.0000     -10.187791      -277.2239
  16   1.0000     -10.187212      -277.2081
  17   1.0000     -10.183809      -277.1155
  18   1.0000     -10.183537      -277.1081
  19   1.0000     -10.182034      -277.0672
  20   1.0000     -10.181964      -277.0653
  21   1.0000     -10.181734      -277.0591
  22   1.0000     -10.176969      -276.9294
  23   1.0000     -10.175690      -276.8946
  24   1.0000      -0.870426       -23.6855
  25   1.0000      -0.863503       -23.4971
  26   1.0000      -0.815003       -22.1773
  27   1.0000      -0.796744       -21.6805
  28   1.0000      -0.794157       -21.6101
  29   1.0000      -0.777925       -21.1684
  30   1.0000      -0.765710       -20.8360
  31   1.0000      -0.751290       -20.4436
  32   1.0000      -0.742990       -20.2178
  33   1.0000      -0.726391       -19.7661
  34   1.0000      -0.712228       -19.3807
  35   1.0000      -0.695392       -18.9226
  36   1.0000      -0.653577       -17.7847
  37   1.0000      -0.641830       -17.4651
  38   1.0000      -0.617132       -16.7930
  39   1.0000      -0.609312       -16.5802
  40   1.0000      -0.608760       -16.5652
  41   1.0000      -0.591507       -16.0957
  42   1.0000      -0.578311       -15.7366
  43   1.0000      -0.558723       -15.2036
  44   1.0000      -0.540550       -14.7091
  45   1.0000      -0.528011       -14.3679
  46   1.0000      -0.504111       -13.7176
  47   1.0000      -0.488267       -13.2864
  48   1.0000      -0.479803       -13.0561
  49   1.0000      -0.475162       -12.9298
  50   1.0000      -0.469964       -12.7884
  51   1.0000      -0.458527       -12.4772
  52   1.0000      -0.457977       -12.4622
  53   1.0000      -0.436824       -11.8866
  54   1.0000      -0.429964       -11.6999
  55   1.0000      -0.427954       -11.6452
  56   1.0000      -0.424910       -11.5624
  57   1.0000      -0.424445       -11.5497
  58   1.0000      -0.419410       -11.4127
  59   1.0000      -0.411299       -11.1920
  60   1.0000      -0.396699       -10.7947
  61   1.0000      -0.390535       -10.6270
  62   1.0000      -0.383125       -10.4254
  63   1.0000      -0.376155       -10.2357
  64   1.0000      -0.374180       -10.1820
  65   1.0000      -0.364033        -9.9058
  66   1.0000      -0.361585        -9.8392
  67   1.0000      -0.355671        -9.6783
  68   1.0000      -0.351169        -9.5558
  69   1.0000      -0.350719        -9.5435
  70   1.0000      -0.337981        -9.1969
  71   1.0000      -0.331892        -9.0312
  72   1.0000      -0.330698        -8.9988
  73   1.0000      -0.328115        -8.9285
  74   1.0000      -0.327408        -8.9092
  75   1.0000      -0.323448        -8.8015
  76   1.0000      -0.321481        -8.7479
  77   1.0000      -0.294142        -8.0040
  78   1.0000      -0.272838        -7.4243
  79   1.0000      -0.268502        -7.3063
  80   1.0000      -0.261329        -7.1111
  81   1.0000      -0.259190        -7.0529
  82   1.0000      -0.252341        -6.8665
  83   1.0000      -0.207358        -5.6425
  84   0.0000      -0.082810        -2.2534
  85   0.0000      -0.052292        -1.4229
  86   0.0000      -0.010826        -0.2946
  87   0.0000      -0.007242        -0.1971
  88   0.0000       0.034236         0.9316

MULLIKEN ATOMIC CHARGES AND SPIN POPULATIONS
--------------------------------------------
   0 C :   -0.605799    0.101370
   1 C :    0.633809   -0.059947
   2 C :    0.264943    0.029779
   3 C :   -0.049689    0.227874
   4 C :    0.081644   -0.166721
   5 C :   -0.030418    0.220825
   6 C :   -0.141694   -0.105281
   7 C :   -0.087401    0.236007
   8 C :    0.026299   -0.117746
   9 H :   -0.053073   -0.009168
  10 H :   -0.051062    0.004253
  11 C :   -0.098654    0.707514
  12 H :   -0.021788   -0.030141
  13 C :    0.033143   -0.048503
  14 H :    0.028956    0.031830
  15 H :    0.028963    0.031762
  16 C :   -0.038574    0.002290
  17 H :    0.013124    0.000473
  18 H :    0.013132    0.000467
  19 C :    0.005472   -0.000182
  20 H :    0.017386    0.000155
  21 H :    0.017390    0.000155
  22 C :    0.039166   -0.018757
  23 H :    0.032120    0.010075
  24 H :    0.032121    0.010072
  25 C :   -0.034508    0.000867
  26 H :    0.017138    0.000181
  27 H :    0.017128    0.000181
  28 C :   -0.025073    0.000023
  29 H :    0.005407    0.000053
  30 H :    0.005413    0.000053
  31 C :    0.003269   -0.000081
  32 H :    0.017597    0.000024
  33 H :    0.017596    0.000024
  34 C :    0.133127   -0.045243
  35 H :   -0.030578   -0.004069
  36 H :    0.013611   -0.000204
  37 H :    0.012547   -0.000005
  38 C :   -0.254326    0.009620
  39 C :    0.030596   -0.009987
  40 C :    0.040233    0.004897
  41 C :    0.033070   -0.010623
  42 C :    0.039935    0.004887
  43 C :    0.027930   -0.009955
  44 H :   -0.026795    0.000462
  45 H :   -0.026858   -0.000175
  46 H :   -0.040079    0.000408
  47 H :   -0.039108    0.000383
  48 H :   -0.026787   -0.000175
Sum of atomic charges         :    0.0000000

LOEWDIN ATOMIC CHARGES AND SPIN POPULATIONS
-------------------------------------------
   0 C :   -0.052742    0.081114
   1 C :   -0.002711   -0.023524
   2 C :   -0.016176    0.015600
   3 C :   -0.041829    0.162939
   4 C :   -0.039876   -0.070601
   5 C :    0.009555    0.167062
   6 C :   -0.051984   -0.057901
   7 C :   -0.005272    0.174595
   8 C :   -0.007491   -0.064315
   9 H :    0.028241    0.000900
  10 H :    0.030806   -0.000477
  11 C :    0.013833    0.581783
  12 H :    0.023045    0.003352
  13 C :   -0.054821    0.005521
  14 H :    0.034336    0.024852
  15 H :    0.034320    0.024796
  16 C :   -0.045885    0.001171
  17 H :    0.025950    0.000301
  18 H :    0.025951    0.000298
  19 C :   -0.067788   -0.000043
  20 H :    0.025488    0.000250
  21 H :    0.025488    0.000250
  22 C :   -0.035666    0.002188
  23 H :    0.038844    0.007923
  24 H :    0.038844    0.007921
  25 C :   -0.043490    0.000160
  26 H :    0.024733    0.000060
  27 H :    0.024731    0.000060
  28 C :   -0.047320    0.000017
  29 H :    0.023804    0.000090
  30 H :    0.023806    0.000090
  31 C :   -0.067571   -0.000038
  32 H :    0.025396    0.000016
  33 H :    0.025397    0.000016
  34 C :   -0.022175   -0.032604
  35 H :    0.022098    0.000142
  36 H :    0.028352   -0.000112
  37 H :    0.027412   -0.000007
  38 C :   -0.053484    0.004310
  39 C :   -0.001190   -0.007781
  40 C :   -0.023654    0.002871
  41 C :   -0.021063   -0.008297
  42 C :   -0.023801    0.002866
  43 C :   -0.002090   -0.007764
  44 H :    0.028341   -0.000044
  45 H :    0.029483    0.000021
  46 H :    0.030166   -0.000021
  47 H :    0.030115   -0.000026
  48 H :    0.029541    0.000021

  Mayer bond orders larger than 0.100000
B(  0-C ,  1-C ) :   2.0957 B(  0-C , 35-H ) :   1.1196 B(  1-C ,  3-C ) :   0.9055
B(  2-C ,  6-C ) :   0.8780 B(  2-C , 34-C ) :   1.7567 B(  2-C , 38-C ) :  -0.1757
B(  3-C ,  4-C ) :   1.2776 B(  3-C ,  8-C ) :   1.3922 B(  4-C ,  5-C ) :   1.2893
B(  4-C , 11-C ) :   1.3669 B(  5-C ,  6-C ) :   1.4467 B(  5-C ,  9-H ) :   0.9195
B(  6-C ,  7-C ) :   1.3493 B(  7-C ,  8-C ) :   1.4162 B(  7-C , 22-C ) :   1.0954
B(  8-C , 10-H ) :   0.9199 B( 11-C , 12-H ) :   0.9016 B( 11-C , 13-C ) :   1.0839
B( 13-C , 14-H ) :   0.9117 B( 13-C , 15-H ) :   0.9117 B( 13-C , 16-C ) :   1.0715
B( 16-C , 17-H ) :   0.9438 B( 16-C , 18-H ) :   0.9437 B( 16-C , 19-C ) :   1.1066
B( 19-C , 20-H ) :   0.9653 B( 19-C , 21-H ) :   0.9653 B( 19-C , 36-H ) :   0.9609
B( 22-C , 23-H ) :   0.8960 B( 22-C , 24-H ) :   0.8961 B( 22-C , 25-C ) :   1.1040
B( 25-C , 26-H ) :   0.9293 B( 25-C , 27-H ) :   0.9293 B( 25-C , 28-C ) :   1.0749
B( 28-C , 29-H ) :   0.9409 B( 28-C , 30-H ) :   0.9409 B( 28-C , 31-C ) :   1.1063
B( 31-C , 32-H ) :   0.9662 B( 31-C , 33-H ) :   0.9662 B( 31-C , 37-H ) :   0.9616
B( 34-C , 38-C ) :   0.9299 B( 38-C , 39-C ) :   1.4425 B( 38-C , 43-C ) :   1.4395
B( 39-C , 40-C ) :   1.4701 B( 39-C , 46-H ) :   0.9400 B( 40-C , 41-C ) :   1.4448
B( 40-C , 48-H ) :   0.9379 B( 41-C , 42-C ) :   1.4441 B( 41-C , 44-H ) :   0.9432
B( 42-C , 43-C ) :   1.4705 B( 42-C , 45-H ) :   0.9379 B( 43-C , 47-H ) :   0.9404

FINAL SINGLE POINT ENERGY      -928.901286149222

DIPOLE MOMENT
-------------
                                X             Y             Z
Electronic contribution:      9.45067      -2.44956      -0.00478
Nuclear contribution   :     -9.07844       2.40891       0.00614
                        -----------------------------------------
Total Dipole Moment    :      0.37223      -0.04065       0.00137
                        -----------------------------------------
Magnitude (a.u.)       :      0.37445
Magnitude (Debye)      :      0.95177

Rotational constants in cm-1:     0.006649     0.004192     0.002580
Rotational constants in MHz :   199.340829   125.673366    77.338746

CHEMICAL SHIELDING SUMMARY (ppm)  --  Orbital contribution
----------------------------------------------------------

  Nucleus  Element    Isotropic     Anisotropy
  -------  -------  ------------   ------------
      9       H           24.427         11.665
     10       H           24.453         12.203
     12       H           25.332         11.508
     14       H           28.971          4.264
     15       H           28.971          4.265
     17       H           29.690          6.659
     18       H           29.690          6.662
     20       H           30.322          7.762
     21       H           30.322          7.762
     23       H           28.662          5.778
     24       H           28.662          5.782
     26       H           29.821          4.814
     27       H           29.821          4.814
     29       H           29.860          6.231
     30       H           29.859          6.232
     32       H           30.301          7.956
     33       H           30.300          7.956
     35       H           28.072         10.158
     36       H           30.099         10.088
     37       H           30.094         10.246
     44       H           24.253          4.418
     45       H           24.207          5.459
     46       H           24.019          7.713
     47       H           24.003          7.760
     48       H           24.198          5.139

                             ****ORCA TERMINATED NORMALLY****
TOTAL RUN TIME: 0 days 1 hours 20 minutes 19 seconds 396 msec
