                         Program Version 5.0.4 -  RELEASE  -
|  1> ! B3LYP cc-pVDZ AUTOAUX
|  2> %pal nprocs 16 end
|  3> *XYZFile 0 2 opt.xyz
|  4> %EPRNMR
|  5>         GTENSOR   TRUE
|  6>         NUCLEI    = ALL H {SHIFT, AISO, ADIP, AORB}
|  7>         ORI       CenterOfElCharge
|  8> END
|  9>
| 10>                          ****END OF INPUT****

CARTESIAN COORDINATES (ANGSTROEM)
---------------------------------
  C     -4.052268    0.115614   -0.001692
  C     -2.836565    0.052160   -0.003421
  C      2.842829   -0.004216   -0.002352
  C     -1.410014    0.002656   -0.003149
  C     -0.708139   -1.258090   -0.002726
  C      0.713185   -1.192512   -0.002392
  C      1.414143    0.016922   -0.002570
  C      0.706182    1.260759   -0.003012
  C     -0.689438    1.209567   -0.003370
  H      1.288191   -2.118709   -0.002058
  H     -1.263059    2.136269   -0.003793
  C     -1.396801   -2.492011   -0.002645
  H     -2.489358   -2.454708   -0.003064
  C     -0.741126   -3.840380   -0.002172
  H     -0.069922   -3.936290   -0.880793
  H     -0.068807   -3.935156    0.875698
  C     -1.739120   -5.005603   -0.000787
  H     -2.397379   -4.914277    0.882428
  H     -2.398569   -4.915385   -0.883231
  C     -1.061646   -6.377131   -0.000385
  H     -0.420496   -6.507557    0.888639
  H     -0.421640   -6.508641   -0.890074
  C      1.479774    2.562726   -0.003141
  H      2.157489    2.561725    0.871211
  H      2.158029    2.561237   -0.877070
  C      0.660782    3.856198   -0.003729
  H     -0.002282    3.880554   -0.888104
  H     -0.002671    3.881100    0.880341
  C      1.541048    5.111788   -0.003930
  H      2.207161    5.089300    0.878622
  H      2.207254    5.088941   -0.886402
  C      0.734674    6.412803   -0.004240
  H      0.084530    6.481508    0.885049
  H      0.084510    6.481072   -0.893549
  C      4.064589   -0.029084   -0.003390
  H     -5.122850    0.176841    0.002017
  H     -1.802776   -7.192512    0.000594
  H      1.393262    7.296517   -0.004468
  C      5.492574   -0.059283   -0.003026
  C      6.185759   -1.289431   -0.002819
  C      7.580089   -1.313817   -0.002390
  C      8.308273   -0.118677   -0.002188
  C      7.631219    1.106277   -0.002419
  C      6.237203    1.140549   -0.002850
  H      9.400533   -0.141833   -0.001853
  H      8.194107    2.042827   -0.002269
  H      5.615401   -2.220203   -0.002988
  H      5.707015    2.094785   -0.003040
  H      8.103468   -2.273007   -0.002217

 Total Charge           Charge          ....    0
 Multiplicity           Mult            ....    2
 Number of Electrons    NEL             ....  169
 Basis Dimension        Dim             ....  461

ORBITAL ENERGIES
----------------
                 SPIN UP ORBITALS
  NO   OCC          E(Eh)            E(eV)
   0   1.0000     -10.216736      -278.0115
   1   1.0000     -10.213432      -277.9216
   2   1.0000     -10.211843      -277.8784
   3   1.0000     -10.202103      -277.6133
   4   1.0000     -10.198407      -277.5128
   5   1.0000     -10.197351      -277.4840
   6   1.0000     -10.197238      -277.4809
   7   1.0000     -10.196253      -277.4542
   8   1.0000     -10.195746      -277.4404
   9   1.0000     -10.195536      -277.4346
  10   1.0000     -10.194274      -277.4003
  11   1.0000     -10.192124      -277.3418
  12   1.0000     -10.190113      -277.2871
  13   1.0000     -10.189765      -277.2776
  14   1.0000     -10.189466      -277.2695
  15   1.0000     -10.187963      -277.2286
  16   1.0000     -10.187745      -277.2226
  17   1.0000     -10.186905      -277.1998
  18   1.0000     -10.185084      -277.1502
  19   1.0000     -10.183594      -277.1097
  20   1.0000     -10.182041      -277.0674
  21   1.0000     -10.181731      -277.0590
  22   1.0000     -10.176952      -276.9289
  23   1.0000     -10.175688      -276.8945
  24   1.0000      -0.873742       -23.7757
  25   1.0000      -0.863475       -23.4963
  26   1.0000      -0.819924       -22.3113
  27   1.0000      -0.797947       -21.7132
  28   1.0000      -0.796635       -21.6776
  29   1.0000      -0.778322       -21.1792
  30   1.0000      -0.767828       -20.8937
  31   1.0000      -0.751179       -20.4406
  32   1.0000      -0.744218       -20.2512
  33   1.0000      -0.729982       -19.8638
  34   1.0000      -0.713910       -19.4265
  35   1.0000      -0.697701       -18.9854
  36   1.0000      -0.656566       -17.8661
  37   1.0000      -0.643550       -17.5119
  38   1.0000      -0.620136       -16.8748
  39   1.0000      -0.611559       -16.6414
  40   1.0000      -0.609242       -16.5783
  41   1.0000      -0.592433       -16.1209
  42   1.0000      -0.579898       -15.7798
  43   1.0000      -0.561721       -15.2852
  44   1.0000      -0.541215       -14.7272
  45   1.0000      -0.529745       -14.4151
  46   1.0000      -0.507078       -13.7983
  47   1.0000      -0.489864       -13.3299
  48   1.0000      -0.480582       -13.0773
  49   1.0000      -0.476041       -12.9537
  50   1.0000      -0.470788       -12.8108
  51   1.0000      -0.462019       -12.5722
  52   1.0000      -0.457960       -12.4617
  53   1.0000      -0.437270       -11.8987
  54   1.0000      -0.431740       -11.7482
  55   1.0000      -0.429224       -11.6798
  56   1.0000      -0.426041       -11.5932
  57   1.0000      -0.424475       -11.5506
  58   1.0000      -0.421992       -11.4830
  59   1.0000      -0.411805       -11.2058
  60   1.0000      -0.398179       -10.8350
  61   1.0000      -0.397798       -10.8246
  62   1.0000      -0.383681       -10.4405
  63   1.0000      -0.378461       -10.2984
  64   1.0000      -0.377411       -10.2699
  65   1.0000      -0.365157        -9.9364
  66   1.0000      -0.361671        -9.8416
  67   1.0000      -0.356493        -9.7007
  68   1.0000      -0.354257        -9.6398
  69   1.0000      -0.350720        -9.5436
  70   1.0000      -0.340258        -9.2589
  71   1.0000      -0.332440        -9.0461
  72   1.0000      -0.332059        -9.0358
  73   1.0000      -0.330390        -8.9904
  74   1.0000      -0.327756        -8.9187
  75   1.0000      -0.324233        -8.8228
  76   1.0000      -0.321825        -8.7573
  77   1.0000      -0.297303        -8.0900
  78   1.0000      -0.275187        -7.4882
  79   1.0000      -0.273490        -7.4420
  80   1.0000      -0.268633        -7.3099
  81   1.0000      -0.258818        -7.0428
  82   1.0000      -0.255679        -6.9574
  83   1.0000      -0.214608        -5.8398
  84   1.0000      -0.173102        -4.7103
  85   0.0000      -0.060121        -1.6360
  86   0.0000      -0.010505        -0.2859
  87   0.0000      -0.008895        -0.2420
  88   0.0000       0.016578         0.4511
  89   0.0000       0.041852         1.1389

                 SPIN DOWN ORBITALS
  NO   OCC          E(Eh)            E(eV)
   0   1.0000     -10.216590      -278.0075
   1   1.0000     -10.213425      -277.9214
   2   1.0000     -10.210014      -277.8286
   3   1.0000     -10.200852      -277.5793
   4   1.0000     -10.198666      -277.5198
   5   1.0000     -10.197497      -277.4880
   6   1.0000     -10.197384      -277.4849
   7   1.0000     -10.196355      -277.4569
   8   1.0000     -10.195684      -277.4387
   9   1.0000     -10.195519      -277.4342
  10   1.0000     -10.191698      -277.3302
  11   1.0000     -10.191164      -277.3157
  12   1.0000     -10.190235      -277.2904
  13   1.0000     -10.190067      -277.2858
  14   1.0000     -10.188648      -277.2472
  15   1.0000     -10.187617      -277.2192
  16   1.0000     -10.187109      -277.2053
  17   1.0000     -10.183796      -277.1152
  18   1.0000     -10.183555      -277.1086
  19   1.0000     -10.182084      -277.0686
  20   1.0000     -10.182041      -277.0674
  21   1.0000     -10.181728      -277.0589
  22   1.0000     -10.176960      -276.9292
  23   1.0000     -10.175689      -276.8946
  24   1.0000      -0.870374       -23.6841
  25   1.0000      -0.863544       -23.4982
  26   1.0000      -0.814979       -22.1767
  27   1.0000      -0.796703       -21.6794
  28   1.0000      -0.794172       -21.6105
  29   1.0000      -0.777956       -21.1693
  30   1.0000      -0.765700       -20.8358
  31   1.0000      -0.751323       -20.4445
  32   1.0000      -0.742975       -20.2174
  33   1.0000      -0.726381       -19.7658
  34   1.0000      -0.712214       -19.3803
  35   1.0000      -0.695388       -18.9225
  36   1.0000      -0.653555       -17.7841
  37   1.0000      -0.641816       -17.4647
  38   1.0000      -0.617146       -16.7934
  39   1.0000      -0.609348       -16.5812
  40   1.0000      -0.608740       -16.5647
  41   1.0000      -0.591504       -16.0956
  42   1.0000      -0.578302       -15.7364
  43   1.0000      -0.558711       -15.2033
  44   1.0000      -0.540566       -14.7096
  45   1.0000      -0.528004       -14.3677
  46   1.0000      -0.504069       -13.7164
  47   1.0000      -0.488271       -13.2865
  48   1.0000      -0.479805       -13.0562
  49   1.0000      -0.475146       -12.9294
  50   1.0000      -0.469938       -12.7877
  51   1.0000      -0.458538       -12.4775
  52   1.0000      -0.458020       -12.4634
  53   1.0000      -0.436852       -11.8874
  54   1.0000      -0.429942       -11.6993
  55   1.0000      -0.427940       -11.6448
  56   1.0000      -0.424912       -11.5624
  57   1.0000      -0.424468       -11.5504
  58   1.0000      -0.419367       -11.4116
  59   1.0000      -0.411286       -11.1916
  60   1.0000      -0.396683       -10.7943
  61   1.0000      -0.390537       -10.6271
  62   1.0000      -0.383144       -10.4259
  63   1.0000      -0.376141       -10.2353
  64   1.0000      -0.374172       -10.1817
  65   1.0000      -0.364015        -9.9054
  66   1.0000      -0.361621        -9.8402
  67   1.0000      -0.355657        -9.6779
  68   1.0000      -0.351158        -9.5555
  69   1.0000      -0.350752        -9.5445
  70   1.0000      -0.337993        -9.1973
  71   1.0000      -0.331905        -9.0316
  72   1.0000      -0.330672        -8.9980
  73   1.0000      -0.328123        -8.9287
  74   1.0000      -0.327394        -8.9089
  75   1.0000      -0.323411        -8.8005
  76   1.0000      -0.321464        -8.7475
  77   1.0000      -0.294152        -8.0043
  78   1.0000      -0.272858        -7.4249
  79   1.0000      -0.268458        -7.3051
  80   1.0000      -0.261329        -7.1111
  81   1.0000      -0.259220        -7.0537
  82   1.0000      -0.252324        -6.8661
  83   1.0000      -0.207340        -5.6420
  84   0.0000      -0.082815        -2.2535
  85   0.0000      -0.052280        -1.4226
  86   0.0000      -0.010857        -0.2954
  87   0.0000      -0.007236        -0.1969
  88   0.0000       0.034250         0.9320

MULLIKEN ATOMIC CHARGES AND SPIN POPULATIONS
--------------------------------------------
   0 C :   -0.605705    0.101612
   1 C :    0.633734   -0.060189
   2 C :    0.265325    0.030195
   3 C :   -0.049776    0.228088
   4 C :    0.081565   -0.166861
   5 C :   -0.030399    0.221064
   6 C :   -0.141488   -0.105571
   7 C :   -0.087267    0.236215
   8 C :    0.026253   -0.117936
   9 H :   -0.053088   -0.009195
  10 H :   -0.051066    0.004270
  11 C :   -0.098715    0.707471
  12 H :   -0.021773   -0.030138
  13 C :    0.033147   -0.048497
  14 H :    0.028964    0.031827
  15 H :    0.028971    0.031759
  16 C :   -0.038576    0.002291
  17 H :    0.013124    0.000473
  18 H :    0.013132    0.000467
  19 C :    0.005481   -0.000182
  20 H :    0.017385    0.000155
  21 H :    0.017389    0.000155
  22 C :    0.039188   -0.018788
  23 H :    0.032105    0.010081
  24 H :    0.032106    0.010078
  25 C :   -0.034525    0.000869
  26 H :    0.017136    0.000181
  27 H :    0.017125    0.000181
  28 C :   -0.025083    0.000023
  29 H :    0.005409    0.000053
  30 H :    0.005415    0.000053
  31 C :    0.003266   -0.000081
  32 H :    0.017597    0.000024
  33 H :    0.017596    0.000024
  34 C :    0.132691   -0.045620
  35 H :   -0.030580   -0.004090
  36 H :    0.013609   -0.000204
  37 H :    0.012547   -0.000005
  38 C :   -0.254374    0.009806
  39 C :    0.030606   -0.010149
  40 C :    0.040228    0.005039
  41 C :    0.033020   -0.010781
  42 C :    0.039933    0.005029
  43 C :    0.027950   -0.010116
  44 H :   -0.026782    0.000476
  45 H :   -0.026850   -0.000186
  46 H :   -0.040071    0.000422
  47 H :   -0.039100    0.000397
  48 H :   -0.026778   -0.000186
Sum of atomic charges         :   -0.0000000

LOEWDIN ATOMIC CHARGES AND SPIN POPULATIONS
-------------------------------------------
   0 C :   -0.052686    0.081284
   1 C :   -0.002765   -0.023656
   2 C :   -0.015938    0.015819
   3 C :   -0.041895    0.163045
   4 C :   -0.039937   -0.070670
   5 C :    0.009568    0.167210
   6 C :   -0.051854   -0.058030
   7 C :   -0.005174    0.174712
   8 C :   -0.007517   -0.064427
   9 H :    0.028233    0.000891
  10 H :    0.030802   -0.000472
  11 C :    0.013788    0.581737
  12 H :    0.023052    0.003351
  13 C :   -0.054819    0.005520
  14 H :    0.034341    0.024850
  15 H :    0.034325    0.024794
  16 C :   -0.045885    0.001171
  17 H :    0.025951    0.000301
  18 H :    0.025951    0.000298
  19 C :   -0.067782   -0.000043
  20 H :    0.025488    0.000250
  21 H :    0.025488    0.000250
  22 C :   -0.035652    0.002182
  23 H :    0.038837    0.007927
  24 H :    0.038837    0.007925
  25 C :   -0.043504    0.000161
  26 H :    0.024731    0.000060
  27 H :    0.024730    0.000060
  28 C :   -0.047328    0.000017
  29 H :    0.023805    0.000090
  30 H :    0.023807    0.000090
  31 C :   -0.067574   -0.000038
  32 H :    0.025397    0.000016
  33 H :    0.025397    0.000016
  34 C :   -0.022420   -0.032824
  35 H :    0.022098    0.000136
  36 H :    0.028352   -0.000112
  37 H :    0.027412   -0.000007
  38 C :   -0.053509    0.004406
  39 C :   -0.001187   -0.007887
  40 C :   -0.023658    0.002958
  41 C :   -0.021098   -0.008399
  42 C :   -0.023802    0.002953
  43 C :   -0.002080   -0.007870
  44 H :    0.028349   -0.000040
  45 H :    0.029489    0.000019
  46 H :    0.030171   -0.000018
  47 H :    0.030119   -0.000023
  48 H :    0.029547    0.000018

  Mayer bond orders larger than 0.100000
B(  0-C ,  1-C ) :   2.0958 B(  0-C , 35-H ) :   1.1196 B(  1-C ,  3-C ) :   0.9055
B(  2-C ,  6-C ) :   0.8780 B(  2-C , 34-C ) :   1.7567 B(  2-C , 38-C ) :  -0.1757
B(  3-C ,  4-C ) :   1.2775 B(  3-C ,  8-C ) :   1.3922 B(  4-C ,  5-C ) :   1.2892
B(  4-C , 11-C ) :   1.3670 B(  5-C ,  6-C ) :   1.4467 B(  5-C ,  9-H ) :   0.9195
B(  6-C ,  7-C ) :   1.3493 B(  7-C ,  8-C ) :   1.4161 B(  7-C , 22-C ) :   1.0954
B(  8-C , 10-H ) :   0.9199 B( 11-C , 12-H ) :   0.9016 B( 11-C , 13-C ) :   1.0839
B( 13-C , 14-H ) :   0.9117 B( 13-C , 15-H ) :   0.9117 B( 13-C , 16-C ) :   1.0715
B( 16-C , 17-H ) :   0.9438 B( 16-C , 18-H ) :   0.9437 B( 16-C , 19-C ) :   1.1066
B( 19-C , 20-H ) :   0.9653 B( 19-C , 21-H ) :   0.9653 B( 19-C , 36-H ) :   0.9609
B( 22-C , 23-H ) :   0.8960 B( 22-C , 24-H ) :   0.8961 B( 22-C , 25-C ) :   1.1040
B( 25-C , 26-H ) :   0.9293 B( 25-C , 27-H ) :   0.9293 B( 25-C , 28-C ) :   1.0749
B( 28-C , 29-H ) :   0.9409 B( 28-C , 30-H ) :   0.9409 B( 28-C , 31-C ) :   1.1063
B( 31-C , 32-H ) :   0.9662 B( 31-C , 33-H ) :   0.9662 B( 31-C , 37-H ) :   0.9616
B( 34-C , 38-C ) :   0.9300 B( 38-C , 39-C ) :   1.4425 B( 38-C , 43-C ) :   1.4395
B( 39-C , 40-C ) :   1.4701 B( 39-C , 46-H ) :   0.9400 B( 40-C , 41-C ) :   1.4448
B( 40-C , 48-H ) :   0.9379 B( 41-C , 42-C ) :   1.4441 B( 41-C , 44-H ) :   0.9432
B( 42-C , 43-C ) :   1.4705 B( 42-C , 45-H ) :   0.9379 B( 43-C , 47-H ) :   0.9404

FINAL SINGLE POINT ENERGY      -928.901289322685

DIPOLE MOMENT
-------------
                                X             Y             Z
Electronic contribution:      9.45043      -2.44937      -0.00478
Nuclear contribution   :     -9.07844       2.40891       0.00614
                        -----------------------------------------
Total Dipole Moment    :      0.37199      -0.04046       0.00137
                        -----------------------------------------
Magnitude (a.u.)       :      0.37419
Magnitude (Debye)      :      0.95111

Rotational constants in cm-1:     0.006649     0.004192     0.002580
Rotational constants in MHz :   199.340829   125.673366    77.338746

CHEMICAL SHIELDING SUMMARY (ppm)  --  Orbital contribution
----------------------------------------------------------

  Nucleus  Element    Isotropic     Anisotropy
  -------  -------  ------------   ------------
      9       H           99.348         21.566
     10       H           38.154         41.389
     12       H            3.628         13.530
     14       H           95.814         15.875
     15       H           95.927         15.827
     17       H            3.300         31.591
     18       H            3.189         31.594
     20       H           38.173         14.329
     21       H           38.078         14.364
     23       H           99.960         33.172
     24       H           99.974         33.154
     26       H           58.003         31.445
     27       H           57.994         31.437
     29       H           57.294         20.493
     30       H           57.288         20.491
     32       H            7.037         23.509
     33       H            7.036         23.511
     35       H          -91.283        -93.576
     36       H          -83.546        -39.810
     37       H          -50.119         25.483
     44       H         -126.034       -177.055
     45       H          -54.857          2.630
     46       H           90.476         19.202
     47       H           90.174         21.595
     48       H          -53.981          3.394

                             ****ORCA TERMINATED NORMALLY****
TOTAL RUN TIME: 0 days 1 hours 20 minutes 26 seconds 878 msec
