                         Program Version 5.0.4 -  RELEASE  -
|  1> ! B3LYP cc-pVDZ AUTOAUX
|  2> %pal nprocs 16 end
|  3> *XYZFile 0 2 opt_cc-pVDZ.xyz
|  4> %EPRNMR
|  5>         GTENSOR   TRUE
|  6>         NUCLEI    = ALL H {SHIFT, AISO, ADIP, AORB}
|  7>         ORI       CenterOfElCharge
|  8> END
|  9>
| 10>                          ****END OF INPUT****

CARTESIAN COORDINATES (ANGSTROEM)
---------------------------------
  C     -4.052444    0.114576   -0.001917
  C     -2.836695    0.052025   -0.003549
  C      2.842695   -0.002426   -0.002408
  C     -1.410144    0.003191   -0.003255
  C     -0.707833   -1.257321   -0.002801
  C      0.713475   -1.191078   -0.002467
  C      1.414021    0.018615   -0.002638
  C      0.705646    1.262168   -0.003060
  C     -0.689967    1.210355   -0.003436
  H      1.289119   -2.116882   -0.002129
  H     -1.264137    2.136725   -0.003842
  C     -1.395767   -2.491604   -0.002682
  H     -2.488356   -2.454946   -0.003084
  C     -0.739360   -3.839669   -0.002176
  H     -0.068220   -3.935242   -0.880855
  H     -0.067023   -3.934025    0.875699
  C     -1.736885   -5.005361   -0.000686
  H     -2.395172   -4.914378    0.882525
  H     -2.396441   -4.915579   -0.883075
  C     -1.058620   -6.376565   -0.000244
  H     -0.417437   -6.506580    0.888808
  H     -0.418674   -6.507764   -0.890012
  C      1.478555    2.564463   -0.003144
  H      2.156290    2.563709    0.871191
  H      2.156815    2.563291   -0.877069
  C      0.659046    3.857635   -0.003676
  H     -0.004000    3.881923   -0.888042
  H     -0.004408    3.882379    0.880373
  C      1.539231    5.113403   -0.003803
  H      2.205315    5.090862    0.878749
  H      2.205482    5.090558   -0.886221
  C      0.732674    6.414392   -0.004106
  H      0.082535    6.482884    0.885190
  H      0.082600    6.482510   -0.893479
  C      4.064440   -0.027928   -0.003417
  H     -5.123092    0.174772    0.001530
  H     -1.799228   -7.192431    0.000819
  H      1.391168    7.298169   -0.004270
  C      5.492399   -0.059967   -0.003046
  C      6.183758   -1.291155   -0.002801
  C      7.578043   -1.317672   -0.002381
  C      8.307982   -0.123597   -0.002235
  C      7.632783    1.102378   -0.002518
  C      6.238787    1.138745   -0.002938
  H      9.400210   -0.148386   -0.001911
  H      8.197162    2.038024   -0.002414
  H      5.612073   -2.221113   -0.002927
  H      5.710033    2.093778   -0.003169
  H      8.099916   -2.277678   -0.002172

 Total Charge           Charge          ....    0
 Multiplicity           Mult            ....    2
 Number of Electrons    NEL             ....  169
 Basis Dimension        Dim             ....  461

ORBITAL ENERGIES
----------------
                 SPIN UP ORBITALS
  NO   OCC          E(Eh)            E(eV)
   0   1.0000     -10.216679      -278.0100
   1   1.0000     -10.213352      -277.9194
   2   1.0000     -10.212017      -277.8831
   3   1.0000     -10.202234      -277.6169
   4   1.0000     -10.198340      -277.5109
   5   1.0000     -10.197333      -277.4835
   6   1.0000     -10.197202      -277.4800
   7   1.0000     -10.196210      -277.4530
   8   1.0000     -10.195725      -277.4398
   9   1.0000     -10.195504      -277.4338
  10   1.0000     -10.194335      -277.4019
  11   1.0000     -10.192061      -277.3401
  12   1.0000     -10.190101      -277.2867
  13   1.0000     -10.189776      -277.2779
  14   1.0000     -10.189410      -277.2679
  15   1.0000     -10.187956      -277.2284
  16   1.0000     -10.187780      -277.2236
  17   1.0000     -10.186954      -277.2011
  18   1.0000     -10.185105      -277.1508
  19   1.0000     -10.183596      -277.1097
  20   1.0000     -10.182036      -277.0673
  21   1.0000     -10.181734      -277.0591
  22   1.0000     -10.176959      -276.9291
  23   1.0000     -10.175684      -276.8944
  24   1.0000      -0.873772       -23.7766
  25   1.0000      -0.863441       -23.4954
  26   1.0000      -0.819935       -22.3116
  27   1.0000      -0.797947       -21.7132
  28   1.0000      -0.796638       -21.6776
  29   1.0000      -0.778293       -21.1784
  30   1.0000      -0.767825       -20.8936
  31   1.0000      -0.751156       -20.4400
  32   1.0000      -0.744231       -20.2516
  33   1.0000      -0.729978       -19.8637
  34   1.0000      -0.713913       -19.4266
  35   1.0000      -0.697702       -18.9854
  36   1.0000      -0.656577       -17.8664
  37   1.0000      -0.643553       -17.5120
  38   1.0000      -0.620131       -16.8746
  39   1.0000      -0.611558       -16.6414
  40   1.0000      -0.609217       -16.5776
  41   1.0000      -0.592441       -16.1211
  42   1.0000      -0.579908       -15.7801
  43   1.0000      -0.561739       -15.2857
  44   1.0000      -0.541206       -14.7270
  45   1.0000      -0.529747       -14.4152
  46   1.0000      -0.507097       -13.7988
  47   1.0000      -0.489866       -13.3299
  48   1.0000      -0.480583       -13.0773
  49   1.0000      -0.476039       -12.9537
  50   1.0000      -0.470793       -12.8109
  51   1.0000      -0.462015       -12.5721
  52   1.0000      -0.457929       -12.4609
  53   1.0000      -0.437255       -11.8983
  54   1.0000      -0.431749       -11.7485
  55   1.0000      -0.429224       -11.6798
  56   1.0000      -0.426030       -11.5929
  57   1.0000      -0.424459       -11.5501
  58   1.0000      -0.422012       -11.4835
  59   1.0000      -0.411799       -11.2056
  60   1.0000      -0.398184       -10.8351
  61   1.0000      -0.397803       -10.8248
  62   1.0000      -0.383675       -10.4403
  63   1.0000      -0.378455       -10.2983
  64   1.0000      -0.377407       -10.2698
  65   1.0000      -0.365158        -9.9365
  66   1.0000      -0.361642        -9.8408
  67   1.0000      -0.356491        -9.7006
  68   1.0000      -0.354267        -9.6401
  69   1.0000      -0.350703        -9.5431
  70   1.0000      -0.340243        -9.2585
  71   1.0000      -0.332438        -9.0461
  72   1.0000      -0.332083        -9.0364
  73   1.0000      -0.330400        -8.9907
  74   1.0000      -0.327764        -8.9189
  75   1.0000      -0.324248        -8.8232
  76   1.0000      -0.321845        -8.7578
  77   1.0000      -0.297291        -8.0897
  78   1.0000      -0.275191        -7.4883
  79   1.0000      -0.273480        -7.4418
  80   1.0000      -0.268657        -7.3105
  81   1.0000      -0.258794        -7.0422
  82   1.0000      -0.255686        -6.9576
  83   1.0000      -0.214614        -5.8399
  84   1.0000      -0.173110        -4.7106
  85   0.0000      -0.060121        -1.6360
  86   0.0000      -0.010485        -0.2853
  87   0.0000      -0.008896        -0.2421
  88   0.0000       0.016577         0.4511
  89   0.0000       0.041849         1.1388

                 SPIN DOWN ORBITALS
  NO   OCC          E(Eh)            E(eV)
   0   1.0000     -10.216526      -278.0058
   1   1.0000     -10.213609      -277.9264
   2   1.0000     -10.209926      -277.8262
   3   1.0000     -10.200790      -277.5776
   4   1.0000     -10.198790      -277.5232
   5   1.0000     -10.197485      -277.4877
   6   1.0000     -10.197355      -277.4841
   7   1.0000     -10.196313      -277.4558
   8   1.0000     -10.195659      -277.4380
   9   1.0000     -10.195487      -277.4333
  10   1.0000     -10.191693      -277.3301
  11   1.0000     -10.191216      -277.3171
  12   1.0000     -10.190184      -277.2890
  13   1.0000     -10.190002      -277.2841
  14   1.0000     -10.188641      -277.2470
  15   1.0000     -10.187729      -277.2222
  16   1.0000     -10.187159      -277.2067
  17   1.0000     -10.183811      -277.1156
  18   1.0000     -10.183557      -277.1087
  19   1.0000     -10.182036      -277.0673
  20   1.0000     -10.182023      -277.0669
  21   1.0000     -10.181731      -277.0590
  22   1.0000     -10.176966      -276.9293
  23   1.0000     -10.175685      -276.8945
  24   1.0000      -0.870404       -23.6849
  25   1.0000      -0.863513       -23.4974
  26   1.0000      -0.814989       -22.1770
  27   1.0000      -0.796722       -21.6799
  28   1.0000      -0.794155       -21.6100
  29   1.0000      -0.777932       -21.1686
  30   1.0000      -0.765696       -20.8357
  31   1.0000      -0.751302       -20.4440
  32   1.0000      -0.742983       -20.2176
  33   1.0000      -0.726378       -19.7658
  34   1.0000      -0.712216       -19.3804
  35   1.0000      -0.695386       -18.9224
  36   1.0000      -0.653569       -17.7845
  37   1.0000      -0.641816       -17.4647
  38   1.0000      -0.617134       -16.7931
  39   1.0000      -0.609325       -16.5806
  40   1.0000      -0.608745       -16.5648
  41   1.0000      -0.591512       -16.0959
  42   1.0000      -0.578313       -15.7367
  43   1.0000      -0.558730       -15.2038
  44   1.0000      -0.540552       -14.7092
  45   1.0000      -0.528007       -14.3678
  46   1.0000      -0.504089       -13.7170
  47   1.0000      -0.488268       -13.2864
  48   1.0000      -0.479805       -13.0562
  49   1.0000      -0.475151       -12.9295
  50   1.0000      -0.469941       -12.7877
  51   1.0000      -0.458537       -12.4774
  52   1.0000      -0.457991       -12.4626
  53   1.0000      -0.436834       -11.8869
  54   1.0000      -0.429952       -11.6996
  55   1.0000      -0.427942       -11.6449
  56   1.0000      -0.424900       -11.5621
  57   1.0000      -0.424454       -11.5500
  58   1.0000      -0.419384       -11.4120
  59   1.0000      -0.411279       -11.1915
  60   1.0000      -0.396688       -10.7944
  61   1.0000      -0.390548       -10.6273
  62   1.0000      -0.383132       -10.4256
  63   1.0000      -0.376136       -10.2352
  64   1.0000      -0.374181       -10.1820
  65   1.0000      -0.364014        -9.9053
  66   1.0000      -0.361592        -9.8394
  67   1.0000      -0.355655        -9.6779
  68   1.0000      -0.351164        -9.5556
  69   1.0000      -0.350736        -9.5440
  70   1.0000      -0.337980        -9.1969
  71   1.0000      -0.331904        -9.0316
  72   1.0000      -0.330691        -8.9985
  73   1.0000      -0.328134        -8.9290
  74   1.0000      -0.327401        -8.9090
  75   1.0000      -0.323425        -8.8008
  76   1.0000      -0.321483        -8.7480
  77   1.0000      -0.294142        -8.0040
  78   1.0000      -0.272846        -7.4245
  79   1.0000      -0.268482        -7.3058
  80   1.0000      -0.261335        -7.1113
  81   1.0000      -0.259203        -7.0533
  82   1.0000      -0.252330        -6.8662
  83   1.0000      -0.207349        -5.6423
  84   0.0000      -0.082808        -2.2533
  85   0.0000      -0.052278        -1.4226
  86   0.0000      -0.010842        -0.2950
  87   0.0000      -0.007237        -0.1969
  88   0.0000       0.034243         0.9318

MULLIKEN ATOMIC CHARGES AND SPIN POPULATIONS
--------------------------------------------
   0 C :   -0.605832    0.102350
   1 C :    0.633828   -0.060799
   2 C :    0.264903    0.031218
   3 C :   -0.049707    0.228668
   4 C :    0.081665   -0.167181
   5 C :   -0.030540    0.221722
   6 C :   -0.141742   -0.106232
   7 C :   -0.087239    0.236778
   8 C :    0.026331   -0.118475
   9 H :   -0.053075   -0.009242
  10 H :   -0.051077    0.004303
  11 C :   -0.098676    0.707275
  12 H :   -0.021798   -0.030132
  13 C :    0.033183   -0.048480
  14 H :    0.028970    0.031805
  15 H :    0.028977    0.031735
  16 C :   -0.038590    0.002290
  17 H :    0.013127    0.000472
  18 H :    0.013135    0.000466
  19 C :    0.005462   -0.000183
  20 H :    0.017390    0.000155
  21 H :    0.017394    0.000155
  22 C :    0.039170   -0.018849
  23 H :    0.032096    0.010102
  24 H :    0.032097    0.010100
  25 C :   -0.034479    0.000874
  26 H :    0.017137    0.000181
  27 H :    0.017128    0.000181
  28 C :   -0.025138    0.000024
  29 H :    0.005412    0.000053
  30 H :    0.005417    0.000053
  31 C :    0.003291   -0.000081
  32 H :    0.017603    0.000024
  33 H :    0.017602    0.000024
  34 C :    0.133083   -0.046623
  35 H :   -0.030575   -0.004131
  36 H :    0.013600   -0.000204
  37 H :    0.012554   -0.000005
  38 C :   -0.254160    0.010300
  39 C :    0.030550   -0.010641
  40 C :    0.040215    0.005442
  41 C :    0.033005   -0.011275
  42 C :    0.039890    0.005434
  43 C :    0.028034   -0.010612
  44 H :   -0.026787    0.000506
  45 H :   -0.026851   -0.000210
  46 H :   -0.040086    0.000451
  47 H :   -0.039113    0.000427
  48 H :   -0.026785   -0.000211
Sum of atomic charges         :   -0.0000000

LOEWDIN ATOMIC CHARGES AND SPIN POPULATIONS
-------------------------------------------
   0 C :   -0.052763    0.081818
   1 C :   -0.002689   -0.023995
   2 C :   -0.016239    0.016428
   3 C :   -0.041830    0.163373
   4 C :   -0.039929   -0.070835
   5 C :    0.009557    0.167656
   6 C :   -0.051978   -0.058369
   7 C :   -0.005273    0.175056
   8 C :   -0.007484   -0.064762
   9 H :    0.028237    0.000882
  10 H :    0.030803   -0.000468
  11 C :    0.013827    0.581555
  12 H :    0.023048    0.003347
  13 C :   -0.054799    0.005512
  14 H :    0.034338    0.024833
  15 H :    0.034321    0.024775
  16 C :   -0.045877    0.001171
  17 H :    0.025947    0.000301
  18 H :    0.025947    0.000297
  19 C :   -0.067784   -0.000043
  20 H :    0.025486    0.000249
  21 H :    0.025486    0.000250
  22 C :   -0.035659    0.002178
  23 H :    0.038847    0.007943
  24 H :    0.038847    0.007941
  25 C :   -0.043469    0.000162
  26 H :    0.024725    0.000059
  27 H :    0.024724    0.000059
  28 C :   -0.047310    0.000017
  29 H :    0.023800    0.000090
  30 H :    0.023801    0.000090
  31 C :   -0.067566   -0.000038
  32 H :    0.025395    0.000016
  33 H :    0.025396    0.000016
  34 C :   -0.022125   -0.033455
  35 H :    0.022100    0.000130
  36 H :    0.028347   -0.000112
  37 H :    0.027408   -0.000007
  38 C :   -0.053437    0.004676
  39 C :   -0.001154   -0.008228
  40 C :   -0.023679    0.003215
  41 C :   -0.021107   -0.008743
  42 C :   -0.023821    0.003210
  43 C :   -0.002065   -0.008213
  44 H :    0.028345   -0.000037
  45 H :    0.029485    0.000015
  46 H :    0.030161   -0.000014
  47 H :    0.030115   -0.000020
  48 H :    0.029543    0.000015

  Mayer bond orders larger than 0.100000
B(  0-C ,  1-C ) :   2.0957 B(  0-C , 35-H ) :   1.1196 B(  1-C ,  3-C ) :   0.9056
B(  2-C ,  6-C ) :   0.8779 B(  2-C , 34-C ) :   1.7568 B(  2-C , 38-C ) :  -0.1757
B(  3-C ,  4-C ) :   1.2774 B(  3-C ,  8-C ) :   1.3922 B(  4-C ,  5-C ) :   1.2890
B(  4-C , 11-C ) :   1.3672 B(  5-C ,  6-C ) :   1.4469 B(  5-C ,  9-H ) :   0.9195
B(  6-C ,  7-C ) :   1.3491 B(  7-C ,  8-C ) :   1.4160 B(  7-C , 22-C ) :   1.0954
B(  8-C , 10-H ) :   0.9198 B( 11-C , 12-H ) :   0.9016 B( 11-C , 13-C ) :   1.0839
B( 13-C , 14-H ) :   0.9117 B( 13-C , 15-H ) :   0.9117 B( 13-C , 16-C ) :   1.0715
B( 16-C , 17-H ) :   0.9438 B( 16-C , 18-H ) :   0.9437 B( 16-C , 19-C ) :   1.1066
B( 19-C , 20-H ) :   0.9653 B( 19-C , 21-H ) :   0.9653 B( 19-C , 36-H ) :   0.9609
B( 22-C , 23-H ) :   0.8960 B( 22-C , 24-H ) :   0.8961 B( 22-C , 25-C ) :   1.1040
B( 25-C , 26-H ) :   0.9293 B( 25-C , 27-H ) :   0.9293 B( 25-C , 28-C ) :   1.0748
B( 28-C , 29-H ) :   0.9410 B( 28-C , 30-H ) :   0.9410 B( 28-C , 31-C ) :   1.1063
B( 31-C , 32-H ) :   0.9662 B( 31-C , 33-H ) :   0.9662 B( 31-C , 37-H ) :   0.9616
B( 34-C , 38-C ) :   0.9300 B( 38-C , 39-C ) :   1.4426 B( 38-C , 43-C ) :   1.4394
B( 39-C , 40-C ) :   1.4702 B( 39-C , 46-H ) :   0.9400 B( 40-C , 41-C ) :   1.4448
B( 40-C , 48-H ) :   0.9379 B( 41-C , 42-C ) :   1.4441 B( 41-C , 44-H ) :   0.9432
B( 42-C , 43-C ) :   1.4705 B( 42-C , 45-H ) :   0.9379 B( 43-C , 47-H ) :   0.9404

FINAL SINGLE POINT ENERGY      -928.901287601454

DIPOLE MOMENT
-------------
                                X             Y             Z
Electronic contribution:      9.44841      -2.45057      -0.00586
Nuclear contribution   :     -9.07599       2.40924       0.00718
                        -----------------------------------------
Total Dipole Moment    :      0.37242      -0.04134       0.00132
                        -----------------------------------------
Magnitude (a.u.)       :      0.37471
Magnitude (Debye)      :      0.95244

Rotational constants in cm-1:     0.006644     0.004194     0.002580
Rotational constants in MHz :   199.181195   125.738880    77.339499

CHEMICAL SHIELDING SUMMARY (ppm)  --  Orbital contribution
----------------------------------------------------------

  Nucleus  Element    Isotropic     Anisotropy
  -------  -------  ------------   ------------
      9       H           99.417         21.584
     10       H           38.105         41.408
     12       H            3.635         13.545
     14       H           95.837         15.891
     15       H           95.960         15.839
     17       H            3.309         31.599
     18       H            3.188         31.602
     20       H           38.205         14.332
     21       H           38.100         14.370
     23       H           99.932         33.135
     24       H           99.941         33.120
     26       H           57.964         31.438
     27       H           57.958         31.429
     29       H           57.298         20.472
     30       H           57.292         20.470
     32       H            7.014         23.507
     33       H            7.013         23.510
     35       H          -91.291        -93.959
     36       H          -83.509        -39.894
     37       H          -50.143         25.489
     44       H         -126.028       -176.971
     45       H          -54.982          2.596
     46       H           90.610         19.223
     47       H           90.033         21.565
     48       H          -53.852          3.423

                             ****ORCA TERMINATED NORMALLY****
TOTAL RUN TIME: 0 days 1 hours 20 minutes 48 seconds 795 msec
