                         Program Version 5.0.4 -  RELEASE  -
|  1> ! B3LYP cc-pVDZ AUTOAUX
|  2> %pal nprocs 16 end
|  3> *XYZFile 0 2 opt_cc-pVDZ.xyz
|  4> %EPRNMR
|  5>         GTENSOR   TRUE
|  6>         NUCLEI    = ALL H {SHIFT, AISO, ADIP, AORB}
|  7>         ORI       GIAO
|  8> END
|  9>
| 10>                          ****END OF INPUT****

CARTESIAN COORDINATES (ANGSTROEM)
---------------------------------
  C     -4.052444    0.114576   -0.001917
  C     -2.836695    0.052025   -0.003549
  C      2.842695   -0.002426   -0.002408
  C     -1.410144    0.003191   -0.003255
  C     -0.707833   -1.257321   -0.002801
  C      0.713475   -1.191078   -0.002467
  C      1.414021    0.018615   -0.002638
  C      0.705646    1.262168   -0.003060
  C     -0.689967    1.210355   -0.003436
  H      1.289119   -2.116882   -0.002129
  H     -1.264137    2.136725   -0.003842
  C     -1.395767   -2.491604   -0.002682
  H     -2.488356   -2.454946   -0.003084
  C     -0.739360   -3.839669   -0.002176
  H     -0.068220   -3.935242   -0.880855
  H     -0.067023   -3.934025    0.875699
  C     -1.736885   -5.005361   -0.000686
  H     -2.395172   -4.914378    0.882525
  H     -2.396441   -4.915579   -0.883075
  C     -1.058620   -6.376565   -0.000244
  H     -0.417437   -6.506580    0.888808
  H     -0.418674   -6.507764   -0.890012
  C      1.478555    2.564463   -0.003144
  H      2.156290    2.563709    0.871191
  H      2.156815    2.563291   -0.877069
  C      0.659046    3.857635   -0.003676
  H     -0.004000    3.881923   -0.888042
  H     -0.004408    3.882379    0.880373
  C      1.539231    5.113403   -0.003803
  H      2.205315    5.090862    0.878749
  H      2.205482    5.090558   -0.886221
  C      0.732674    6.414392   -0.004106
  H      0.082535    6.482884    0.885190
  H      0.082600    6.482510   -0.893479
  C      4.064440   -0.027928   -0.003417
  H     -5.123092    0.174772    0.001530
  H     -1.799228   -7.192431    0.000819
  H      1.391168    7.298169   -0.004270
  C      5.492399   -0.059967   -0.003046
  C      6.183758   -1.291155   -0.002801
  C      7.578043   -1.317672   -0.002381
  C      8.307982   -0.123597   -0.002235
  C      7.632783    1.102378   -0.002518
  C      6.238787    1.138745   -0.002938
  H      9.400210   -0.148386   -0.001911
  H      8.197162    2.038024   -0.002414
  H      5.612073   -2.221113   -0.002927
  H      5.710033    2.093778   -0.003169
  H      8.099916   -2.277678   -0.002172

 Total Charge           Charge          ....    0
 Multiplicity           Mult            ....    2
 Number of Electrons    NEL             ....  169
 Basis Dimension        Dim             ....  461

ORBITAL ENERGIES
----------------
                 SPIN UP ORBITALS
  NO   OCC          E(Eh)            E(eV)
   0   1.0000     -10.216733      -278.0114
   1   1.0000     -10.213364      -277.9198
   2   1.0000     -10.211976      -277.8820
   3   1.0000     -10.202209      -277.6162
   4   1.0000     -10.198340      -277.5110
   5   1.0000     -10.197358      -277.4842
   6   1.0000     -10.197228      -277.4807
   7   1.0000     -10.196199      -277.4527
   8   1.0000     -10.195718      -277.4396
   9   1.0000     -10.195496      -277.4335
  10   1.0000     -10.194318      -277.4015
  11   1.0000     -10.192064      -277.3402
  12   1.0000     -10.190101      -277.2867
  13   1.0000     -10.189777      -277.2779
  14   1.0000     -10.189432      -277.2686
  15   1.0000     -10.187956      -277.2284
  16   1.0000     -10.187780      -277.2236
  17   1.0000     -10.186944      -277.2008
  18   1.0000     -10.185088      -277.1503
  19   1.0000     -10.183595      -277.1097
  20   1.0000     -10.182035      -277.0673
  21   1.0000     -10.181732      -277.0590
  22   1.0000     -10.176959      -276.9291
  23   1.0000     -10.175684      -276.8944
  24   1.0000      -0.873762       -23.7763
  25   1.0000      -0.863456       -23.4958
  26   1.0000      -0.819929       -22.3114
  27   1.0000      -0.797945       -21.7132
  28   1.0000      -0.796634       -21.6775
  29   1.0000      -0.778304       -21.1787
  30   1.0000      -0.767821       -20.8935
  31   1.0000      -0.751165       -20.4402
  32   1.0000      -0.744228       -20.2515
  33   1.0000      -0.729976       -19.8637
  34   1.0000      -0.713912       -19.4265
  35   1.0000      -0.697700       -18.9854
  36   1.0000      -0.656573       -17.8663
  37   1.0000      -0.643551       -17.5119
  38   1.0000      -0.620132       -16.8747
  39   1.0000      -0.611559       -16.6414
  40   1.0000      -0.609228       -16.5779
  41   1.0000      -0.592439       -16.1211
  42   1.0000      -0.579906       -15.7800
  43   1.0000      -0.561735       -15.2856
  44   1.0000      -0.541212       -14.7271
  45   1.0000      -0.529745       -14.4151
  46   1.0000      -0.507087       -13.7985
  47   1.0000      -0.489864       -13.3299
  48   1.0000      -0.480584       -13.0773
  49   1.0000      -0.476039       -12.9537
  50   1.0000      -0.470790       -12.8108
  51   1.0000      -0.462016       -12.5721
  52   1.0000      -0.457941       -12.4612
  53   1.0000      -0.437261       -11.8985
  54   1.0000      -0.431747       -11.7484
  55   1.0000      -0.429219       -11.6796
  56   1.0000      -0.426029       -11.5928
  57   1.0000      -0.424467       -11.5503
  58   1.0000      -0.422007       -11.4834
  59   1.0000      -0.411796       -11.2055
  60   1.0000      -0.398183       -10.8351
  61   1.0000      -0.397799       -10.8247
  62   1.0000      -0.383683       -10.4405
  63   1.0000      -0.378451       -10.2982
  64   1.0000      -0.377411       -10.2699
  65   1.0000      -0.365155        -9.9364
  66   1.0000      -0.361647        -9.8409
  67   1.0000      -0.356489        -9.7006
  68   1.0000      -0.354265        -9.6400
  69   1.0000      -0.350711        -9.5433
  70   1.0000      -0.340242        -9.2585
  71   1.0000      -0.332438        -9.0461
  72   1.0000      -0.332078        -9.0363
  73   1.0000      -0.330401        -8.9907
  74   1.0000      -0.327762        -8.9188
  75   1.0000      -0.324242        -8.8231
  76   1.0000      -0.321842        -8.7578
  77   1.0000      -0.297295        -8.0898
  78   1.0000      -0.275188        -7.4882
  79   1.0000      -0.273480        -7.4418
  80   1.0000      -0.268658        -7.3106
  81   1.0000      -0.258803        -7.0424
  82   1.0000      -0.255684        -6.9575
  83   1.0000      -0.214613        -5.8399
  84   1.0000      -0.173105        -4.7104
  85   0.0000      -0.060122        -1.6360
  86   0.0000      -0.010494        -0.2856
  87   0.0000      -0.008897        -0.2421
  88   0.0000       0.016581         0.4512
  89   0.0000       0.041848         1.1388

                 SPIN DOWN ORBITALS
  NO   OCC          E(Eh)            E(eV)
   0   1.0000     -10.216582      -278.0073
   1   1.0000     -10.213565      -277.9252
   2   1.0000     -10.209939      -277.8266
   3   1.0000     -10.200789      -277.5776
   4   1.0000     -10.198766      -277.5225
   5   1.0000     -10.197509      -277.4883
   6   1.0000     -10.197379      -277.4848
   7   1.0000     -10.196299      -277.4554
   8   1.0000     -10.195654      -277.4378
   9   1.0000     -10.195480      -277.4331
  10   1.0000     -10.191692      -277.3300
  11   1.0000     -10.191201      -277.3167
  12   1.0000     -10.190206      -277.2896
  13   1.0000     -10.190034      -277.2849
  14   1.0000     -10.188641      -277.2470
  15   1.0000     -10.187697      -277.2213
  16   1.0000     -10.187149      -277.2064
  17   1.0000     -10.183795      -277.1151
  18   1.0000     -10.183556      -277.1086
  19   1.0000     -10.182035      -277.0673
  20   1.0000     -10.182026      -277.0670
  21   1.0000     -10.181729      -277.0589
  22   1.0000     -10.176967      -276.9294
  23   1.0000     -10.175686      -276.8945
  24   1.0000      -0.870394       -23.6846
  25   1.0000      -0.863527       -23.4978
  26   1.0000      -0.814984       -22.1768
  27   1.0000      -0.796717       -21.6798
  28   1.0000      -0.794155       -21.6101
  29   1.0000      -0.777943       -21.1689
  30   1.0000      -0.765693       -20.8356
  31   1.0000      -0.751311       -20.4442
  32   1.0000      -0.742981       -20.2175
  33   1.0000      -0.726376       -19.7657
  34   1.0000      -0.712216       -19.3804
  35   1.0000      -0.695384       -18.9223
  36   1.0000      -0.653565       -17.7844
  37   1.0000      -0.641814       -17.4647
  38   1.0000      -0.617139       -16.7932
  39   1.0000      -0.609336       -16.5809
  40   1.0000      -0.608742       -16.5647
  41   1.0000      -0.591510       -16.0958
  42   1.0000      -0.578311       -15.7366
  43   1.0000      -0.558726       -15.2037
  44   1.0000      -0.540560       -14.7094
  45   1.0000      -0.528004       -14.3677
  46   1.0000      -0.504079       -13.7167
  47   1.0000      -0.488267       -13.2864
  48   1.0000      -0.479807       -13.0562
  49   1.0000      -0.475149       -12.9295
  50   1.0000      -0.469938       -12.7877
  51   1.0000      -0.458537       -12.4774
  52   1.0000      -0.458003       -12.4629
  53   1.0000      -0.436842       -11.8871
  54   1.0000      -0.429947       -11.6995
  55   1.0000      -0.427938       -11.6448
  56   1.0000      -0.424900       -11.5621
  57   1.0000      -0.424461       -11.5502
  58   1.0000      -0.419379       -11.4119
  59   1.0000      -0.411276       -11.1914
  60   1.0000      -0.396684       -10.7943
  61   1.0000      -0.390547       -10.6273
  62   1.0000      -0.383142       -10.4258
  63   1.0000      -0.376132       -10.2351
  64   1.0000      -0.374180       -10.1820
  65   1.0000      -0.364012        -9.9053
  66   1.0000      -0.361597        -9.8396
  67   1.0000      -0.355652        -9.6778
  68   1.0000      -0.351162        -9.5556
  69   1.0000      -0.350744        -9.5442
  70   1.0000      -0.337980        -9.1969
  71   1.0000      -0.331903        -9.0316
  72   1.0000      -0.330686        -8.9984
  73   1.0000      -0.328134        -8.9290
  74   1.0000      -0.327399        -8.9090
  75   1.0000      -0.323419        -8.8007
  76   1.0000      -0.321481        -8.7479
  77   1.0000      -0.294146        -8.0041
  78   1.0000      -0.272847        -7.4245
  79   1.0000      -0.268483        -7.3058
  80   1.0000      -0.261331        -7.1112
  81   1.0000      -0.259210        -7.0535
  82   1.0000      -0.252327        -6.8662
  83   1.0000      -0.207349        -5.6422
  84   0.0000      -0.082807        -2.2533
  85   0.0000      -0.052278        -1.4226
  86   0.0000      -0.010850        -0.2952
  87   0.0000      -0.007238        -0.1969
  88   0.0000       0.034247         0.9319

MULLIKEN ATOMIC CHARGES AND SPIN POPULATIONS
--------------------------------------------
   0 C :   -0.605678    0.102261
   1 C :    0.633734   -0.060718
   2 C :    0.265349    0.031070
   3 C :   -0.049792    0.228592
   4 C :    0.081644   -0.167140
   5 C :   -0.030492    0.221641
   6 C :   -0.141550   -0.106151
   7 C :   -0.087163    0.236712
   8 C :    0.026283   -0.118405
   9 H :   -0.053085   -0.009235
  10 H :   -0.051081    0.004297
  11 C :   -0.098710    0.707290
  12 H :   -0.021796   -0.030133
  13 C :    0.033186   -0.048483
  14 H :    0.028970    0.031806
  15 H :    0.028977    0.031737
  16 C :   -0.038589    0.002290
  17 H :    0.013126    0.000472
  18 H :    0.013135    0.000466
  19 C :    0.005461   -0.000183
  20 H :    0.017391    0.000155
  21 H :    0.017395    0.000155
  22 C :    0.039194   -0.018840
  23 H :    0.032090    0.010100
  24 H :    0.032091    0.010098
  25 C :   -0.034487    0.000873
  26 H :    0.017136    0.000181
  27 H :    0.017127    0.000181
  28 C :   -0.025139    0.000024
  29 H :    0.005411    0.000053
  30 H :    0.005416    0.000053
  31 C :    0.003289   -0.000081
  32 H :    0.017604    0.000024
  33 H :    0.017603    0.000024
  34 C :    0.132596   -0.046473
  35 H :   -0.030579   -0.004124
  36 H :    0.013601   -0.000204
  37 H :    0.012554   -0.000005
  38 C :   -0.254370    0.010226
  39 C :    0.030500   -0.010570
  40 C :    0.040260    0.005382
  41 C :    0.033063   -0.011205
  42 C :    0.039938    0.005372
  43 C :    0.027985   -0.010540
  44 H :   -0.026793    0.000501
  45 H :   -0.026853   -0.000206
  46 H :   -0.040070    0.000446
  47 H :   -0.039097    0.000422
  48 H :   -0.026786   -0.000206
Sum of atomic charges         :    0.0000000

LOEWDIN ATOMIC CHARGES AND SPIN POPULATIONS
-------------------------------------------
   0 C :   -0.052678    0.081748
   1 C :   -0.002775   -0.023944
   2 C :   -0.015970    0.016342
   3 C :   -0.041870    0.163332
   4 C :   -0.039938   -0.070814
   5 C :    0.009580    0.167602
   6 C :   -0.051898   -0.058324
   7 C :   -0.005224    0.175013
   8 C :   -0.007500   -0.064715
   9 H :    0.028233    0.000884
  10 H :    0.030800   -0.000469
  11 C :    0.013809    0.581568
  12 H :    0.023047    0.003347
  13 C :   -0.054799    0.005511
  14 H :    0.034338    0.024834
  15 H :    0.034321    0.024776
  16 C :   -0.045876    0.001171
  17 H :    0.025946    0.000301
  18 H :    0.025947    0.000297
  19 C :   -0.067784   -0.000043
  20 H :    0.025486    0.000249
  21 H :    0.025486    0.000250
  22 C :   -0.035654    0.002180
  23 H :    0.038845    0.007942
  24 H :    0.038846    0.007940
  25 C :   -0.043473    0.000161
  26 H :    0.024725    0.000059
  27 H :    0.024723    0.000059
  28 C :   -0.047311    0.000017
  29 H :    0.023799    0.000090
  30 H :    0.023801    0.000090
  31 C :   -0.067568   -0.000038
  32 H :    0.025396    0.000016
  33 H :    0.025396    0.000016
  34 C :   -0.022394   -0.033366
  35 H :    0.022100    0.000132
  36 H :    0.028347   -0.000112
  37 H :    0.027408   -0.000007
  38 C :   -0.053537    0.004636
  39 C :   -0.001196   -0.008180
  40 C :   -0.023644    0.003177
  41 C :   -0.021063   -0.008695
  42 C :   -0.023784    0.003172
  43 C :   -0.002106   -0.008165
  44 H :    0.028343   -0.000038
  45 H :    0.029486    0.000016
  46 H :    0.030168   -0.000015
  47 H :    0.030121   -0.000021
  48 H :    0.029544    0.000016

  Mayer bond orders larger than 0.100000
B(  0-C ,  1-C ) :   2.0957 B(  0-C , 35-H ) :   1.1196 B(  1-C ,  3-C ) :   0.9056
B(  2-C ,  6-C ) :   0.8780 B(  2-C , 34-C ) :   1.7567 B(  2-C , 38-C ) :  -0.1757
B(  3-C ,  4-C ) :   1.2774 B(  3-C ,  8-C ) :   1.3922 B(  4-C ,  5-C ) :   1.2890
B(  4-C , 11-C ) :   1.3672 B(  5-C ,  6-C ) :   1.4468 B(  5-C ,  9-H ) :   0.9195
B(  6-C ,  7-C ) :   1.3491 B(  7-C ,  8-C ) :   1.4160 B(  7-C , 22-C ) :   1.0954
B(  8-C , 10-H ) :   0.9198 B( 11-C , 12-H ) :   0.9016 B( 11-C , 13-C ) :   1.0839
B( 13-C , 14-H ) :   0.9117 B( 13-C , 15-H ) :   0.9117 B( 13-C , 16-C ) :   1.0715
B( 16-C , 17-H ) :   0.9438 B( 16-C , 18-H ) :   0.9437 B( 16-C , 19-C ) :   1.1066
B( 19-C , 20-H ) :   0.9653 B( 19-C , 21-H ) :   0.9653 B( 19-C , 36-H ) :   0.9609
B( 22-C , 23-H ) :   0.8960 B( 22-C , 24-H ) :   0.8961 B( 22-C , 25-C ) :   1.1040
B( 25-C , 26-H ) :   0.9293 B( 25-C , 27-H ) :   0.9293 B( 25-C , 28-C ) :   1.0748
B( 28-C , 29-H ) :   0.9410 B( 28-C , 30-H ) :   0.9410 B( 28-C , 31-C ) :   1.1063
B( 31-C , 32-H ) :   0.9662 B( 31-C , 33-H ) :   0.9662 B( 31-C , 37-H ) :   0.9616
B( 34-C , 38-C ) :   0.9300 B( 38-C , 39-C ) :   1.4426 B( 38-C , 43-C ) :   1.4394
B( 39-C , 40-C ) :   1.4702 B( 39-C , 46-H ) :   0.9400 B( 40-C , 41-C ) :   1.4448
B( 40-C , 48-H ) :   0.9379 B( 41-C , 42-C ) :   1.4441 B( 41-C , 44-H ) :   0.9432
B( 42-C , 43-C ) :   1.4705 B( 42-C , 45-H ) :   0.9379 B( 43-C , 47-H ) :   0.9404

FINAL SINGLE POINT ENERGY      -928.901287571634

DIPOLE MOMENT
-------------
                                X             Y             Z
Electronic contribution:      9.44795      -2.45047      -0.00586
Nuclear contribution   :     -9.07599       2.40924       0.00718
                        -----------------------------------------
Total Dipole Moment    :      0.37196      -0.04124       0.00132
                        -----------------------------------------
Magnitude (a.u.)       :      0.37424
Magnitude (Debye)      :      0.95124

Rotational constants in cm-1:     0.006644     0.004194     0.002580
Rotational constants in MHz :   199.181195   125.738880    77.339499

CHEMICAL SHIELDING SUMMARY (ppm)  --  Orbital contribution
----------------------------------------------------------

  Nucleus  Element    Isotropic     Anisotropy
  -------  -------  ------------   ------------
      9       H           24.434         11.650
     10       H           24.456         12.204
     12       H           25.332         11.513
     14       H           28.973          4.261
     15       H           28.973          4.262
     17       H           29.689          6.658
     18       H           29.689          6.661
     20       H           30.321          7.763
     21       H           30.321          7.763
     23       H           28.666          5.769
     24       H           28.665          5.773
     26       H           29.824          4.814
     27       H           29.824          4.814
     29       H           29.865          6.229
     30       H           29.864          6.230
     32       H           30.303          7.955
     33       H           30.303          7.954
     35       H           28.071         10.157
     36       H           30.098         10.089
     37       H           30.097         10.244
     44       H           24.243          4.434
     45       H           24.202          5.464
     46       H           24.024          7.710
     47       H           24.010          7.752
     48       H           24.192          5.149

                             ****ORCA TERMINATED NORMALLY****
TOTAL RUN TIME: 0 days 1 hours 21 minutes 37 seconds 779 msec
