                         Program Version 5.0.4 -  RELEASE  -
|  1> ! B3LYP EPR-II AUTOAUX
|  2> %pal nprocs 16 end
|  3> *XYZFile 0 2 opt.xyz
|  4> %EPRNMR
|  5>         GTENSOR   TRUE
|  6>         NUCLEI    = ALL H {SHIFT, AISO, ADIP, AORB}
|  7>         ORI       CenterOfElCharge
|  8> END
|  9>
| 10>                          ****END OF INPUT****

CARTESIAN COORDINATES (ANGSTROEM)
---------------------------------
  C     -4.052268    0.115614   -0.001692
  C     -2.836565    0.052160   -0.003421
  C      2.842829   -0.004216   -0.002352
  C     -1.410014    0.002656   -0.003149
  C     -0.708139   -1.258090   -0.002726
  C      0.713185   -1.192512   -0.002392
  C      1.414143    0.016922   -0.002570
  C      0.706182    1.260759   -0.003012
  C     -0.689438    1.209567   -0.003370
  H      1.288191   -2.118709   -0.002058
  H     -1.263059    2.136269   -0.003793
  C     -1.396801   -2.492011   -0.002645
  H     -2.489358   -2.454708   -0.003064
  C     -0.741126   -3.840380   -0.002172
  H     -0.069922   -3.936290   -0.880793
  H     -0.068807   -3.935156    0.875698
  C     -1.739120   -5.005603   -0.000787
  H     -2.397379   -4.914277    0.882428
  H     -2.398569   -4.915385   -0.883231
  C     -1.061646   -6.377131   -0.000385
  H     -0.420496   -6.507557    0.888639
  H     -0.421640   -6.508641   -0.890074
  C      1.479774    2.562726   -0.003141
  H      2.157489    2.561725    0.871211
  H      2.158029    2.561237   -0.877070
  C      0.660782    3.856198   -0.003729
  H     -0.002282    3.880554   -0.888104
  H     -0.002671    3.881100    0.880341
  C      1.541048    5.111788   -0.003930
  H      2.207161    5.089300    0.878622
  H      2.207254    5.088941   -0.886402
  C      0.734674    6.412803   -0.004240
  H      0.084530    6.481508    0.885049
  H      0.084510    6.481072   -0.893549
  C      4.064589   -0.029084   -0.003390
  H     -5.122850    0.176841    0.002017
  H     -1.802776   -7.192512    0.000594
  H      1.393262    7.296517   -0.004468
  C      5.492574   -0.059283   -0.003026
  C      6.185759   -1.289431   -0.002819
  C      7.580089   -1.313817   -0.002390
  C      8.308273   -0.118677   -0.002188
  C      7.631219    1.106277   -0.002419
  C      6.237203    1.140549   -0.002850
  H      9.400533   -0.141833   -0.001853
  H      8.194107    2.042827   -0.002269
  H      5.615401   -2.220203   -0.002988
  H      5.707015    2.094785   -0.003040
  H      8.103468   -2.273007   -0.002217

 Total Charge           Charge          ....    0
 Multiplicity           Mult            ....    2
 Number of Electrons    NEL             ....  169
 Basis Dimension        Dim             ....  583

ORBITAL ENERGIES
----------------
                 SPIN UP ORBITALS
  NO   OCC          E(Eh)            E(eV)
   0   1.0000     -10.227932      -278.3162
   1   1.0000     -10.223456      -278.1944
   2   1.0000     -10.221555      -278.1427
   3   1.0000     -10.210974      -277.8547
   4   1.0000     -10.208424      -277.7854
   5   1.0000     -10.205724      -277.7119
   6   1.0000     -10.205615      -277.7089
   7   1.0000     -10.205417      -277.7035
   8   1.0000     -10.204669      -277.6832
   9   1.0000     -10.204485      -277.6782
  10   1.0000     -10.203450      -277.6500
  11   1.0000     -10.202349      -277.6200
  12   1.0000     -10.201035      -277.5843
  13   1.0000     -10.200157      -277.5604
  14   1.0000     -10.197825      -277.4969
  15   1.0000     -10.197070      -277.4764
  16   1.0000     -10.195833      -277.4427
  17   1.0000     -10.189655      -277.2746
  18   1.0000     -10.188007      -277.2298
  19   1.0000     -10.184680      -277.1392
  20   1.0000     -10.182754      -277.0868
  21   1.0000     -10.182402      -277.0773
  22   1.0000     -10.174921      -276.8737
  23   1.0000     -10.173243      -276.8280
  24   1.0000      -0.873410       -23.7667
  25   1.0000      -0.863744       -23.5037
  26   1.0000      -0.819114       -22.2892
  27   1.0000      -0.797908       -21.7122
  28   1.0000      -0.794955       -21.6318
  29   1.0000      -0.778830       -21.1930
  30   1.0000      -0.766737       -20.8640
  31   1.0000      -0.751755       -20.4563
  32   1.0000      -0.745019       -20.2730
  33   1.0000      -0.729123       -19.8405
  34   1.0000      -0.714856       -19.4522
  35   1.0000      -0.696596       -18.9553
  36   1.0000      -0.655648       -17.8411
  37   1.0000      -0.644144       -17.5280
  38   1.0000      -0.619978       -16.8704
  39   1.0000      -0.611655       -16.6440
  40   1.0000      -0.610144       -16.6029
  41   1.0000      -0.592138       -16.1129
  42   1.0000      -0.579281       -15.7630
  43   1.0000      -0.561607       -15.2821
  44   1.0000      -0.542608       -14.7651
  45   1.0000      -0.531156       -14.4535
  46   1.0000      -0.507333       -13.8052
  47   1.0000      -0.490944       -13.3593
  48   1.0000      -0.481056       -13.0902
  49   1.0000      -0.476306       -12.9610
  50   1.0000      -0.470484       -12.8025
  51   1.0000      -0.462084       -12.5739
  52   1.0000      -0.457641       -12.4531
  53   1.0000      -0.438344       -11.9280
  54   1.0000      -0.431772       -11.7491
  55   1.0000      -0.429121       -11.6770
  56   1.0000      -0.425972       -11.5913
  57   1.0000      -0.425405       -11.5758
  58   1.0000      -0.421886       -11.4801
  59   1.0000      -0.411403       -11.1948
  60   1.0000      -0.398260       -10.8372
  61   1.0000      -0.397361       -10.8127
  62   1.0000      -0.383714       -10.4414
  63   1.0000      -0.378392       -10.2966
  64   1.0000      -0.377436       -10.2706
  65   1.0000      -0.364615        -9.9217
  66   1.0000      -0.362878        -9.8744
  67   1.0000      -0.356544        -9.7021
  68   1.0000      -0.354331        -9.6418
  69   1.0000      -0.352288        -9.5862
  70   1.0000      -0.339522        -9.2389
  71   1.0000      -0.332385        -9.0447
  72   1.0000      -0.332066        -9.0360
  73   1.0000      -0.330380        -8.9901
  74   1.0000      -0.327190        -8.9033
  75   1.0000      -0.323148        -8.7933
  76   1.0000      -0.321368        -8.7449
  77   1.0000      -0.298082        -8.1112
  78   1.0000      -0.275363        -7.4930
  79   1.0000      -0.275353        -7.4927
  80   1.0000      -0.269639        -7.3373
  81   1.0000      -0.259540        -7.0624
  82   1.0000      -0.256631        -6.9833
  83   1.0000      -0.215614        -5.8672
  84   1.0000      -0.173677        -4.7260
  85   0.0000      -0.062139        -1.6909
  86   0.0000      -0.014757        -0.4016
  87   0.0000      -0.012344        -0.3359
  88   0.0000       0.014104         0.3838
  89   0.0000       0.014293         0.3889

                 SPIN DOWN ORBITALS
  NO   OCC          E(Eh)            E(eV)
   0   1.0000     -10.227786      -278.3122
   1   1.0000     -10.223132      -278.1856
   2   1.0000     -10.220042      -278.1015
   3   1.0000     -10.210845      -277.8512
   4   1.0000     -10.207542      -277.7613
   5   1.0000     -10.205849      -277.7153
   6   1.0000     -10.205740      -277.7123
   7   1.0000     -10.205555      -277.7073
   8   1.0000     -10.204620      -277.6818
   9   1.0000     -10.204459      -277.6774
  10   1.0000     -10.204249      -277.6717
  11   1.0000     -10.202671      -277.6288
  12   1.0000     -10.200006      -277.5563
  13   1.0000     -10.198642      -277.5192
  14   1.0000     -10.197946      -277.5002
  15   1.0000     -10.194541      -277.4076
  16   1.0000     -10.190323      -277.2928
  17   1.0000     -10.188207      -277.2352
  18   1.0000     -10.187902      -277.2269
  19   1.0000     -10.184642      -277.1382
  20   1.0000     -10.182754      -277.0868
  21   1.0000     -10.182400      -277.0772
  22   1.0000     -10.174930      -276.8739
  23   1.0000     -10.173245      -276.8281
  24   1.0000      -0.870060       -23.6755
  25   1.0000      -0.863795       -23.5050
  26   1.0000      -0.814242       -22.1566
  27   1.0000      -0.796351       -21.6698
  28   1.0000      -0.792662       -21.5694
  29   1.0000      -0.778446       -21.1826
  30   1.0000      -0.764689       -20.8082
  31   1.0000      -0.751899       -20.4602
  32   1.0000      -0.743992       -20.2450
  33   1.0000      -0.725384       -19.7387
  34   1.0000      -0.713191       -19.4069
  35   1.0000      -0.694278       -18.8923
  36   1.0000      -0.652592       -17.7579
  37   1.0000      -0.642421       -17.4812
  38   1.0000      -0.617534       -16.8039
  39   1.0000      -0.610240       -16.6055
  40   1.0000      -0.608383       -16.5550
  41   1.0000      -0.591194       -16.0872
  42   1.0000      -0.577661       -15.7190
  43   1.0000      -0.558682       -15.2025
  44   1.0000      -0.541953       -14.7473
  45   1.0000      -0.529456       -14.4072
  46   1.0000      -0.504319       -13.7232
  47   1.0000      -0.489316       -13.3150
  48   1.0000      -0.480455       -13.0739
  49   1.0000      -0.475146       -12.9294
  50   1.0000      -0.469617       -12.7789
  51   1.0000      -0.458612       -12.4795
  52   1.0000      -0.457705       -12.4548
  53   1.0000      -0.438079       -11.9207
  54   1.0000      -0.430254       -11.7078
  55   1.0000      -0.427318       -11.6279
  56   1.0000      -0.425978       -11.5914
  57   1.0000      -0.424224       -11.5437
  58   1.0000      -0.419267       -11.4088
  59   1.0000      -0.410919       -11.1817
  60   1.0000      -0.396222       -10.7817
  61   1.0000      -0.390679       -10.6309
  62   1.0000      -0.383159       -10.4263
  63   1.0000      -0.376044       -10.2327
  64   1.0000      -0.374165       -10.1815
  65   1.0000      -0.363432        -9.8895
  66   1.0000      -0.362904        -9.8751
  67   1.0000      -0.355654        -9.6778
  68   1.0000      -0.352311        -9.5869
  69   1.0000      -0.351205        -9.5568
  70   1.0000      -0.337169        -9.1748
  71   1.0000      -0.331547        -9.0219
  72   1.0000      -0.330949        -9.0056
  73   1.0000      -0.328130        -8.9289
  74   1.0000      -0.326814        -8.8931
  75   1.0000      -0.322398        -8.7729
  76   1.0000      -0.321040        -8.7359
  77   1.0000      -0.294976        -8.0267
  78   1.0000      -0.274743        -7.4761
  79   1.0000      -0.269461        -7.3324
  80   1.0000      -0.261723        -7.1218
  81   1.0000      -0.259942        -7.0734
  82   1.0000      -0.253110        -6.8875
  83   1.0000      -0.208431        -5.6717
  84   0.0000      -0.084136        -2.2895
  85   0.0000      -0.054474        -1.4823
  86   0.0000      -0.015098        -0.4108
  87   0.0000      -0.010771        -0.2931
  88   0.0000       0.014262         0.3881

MULLIKEN ATOMIC CHARGES AND SPIN POPULATIONS
--------------------------------------------
   0 C :   -0.546465    0.099740
   1 C :   -0.010147   -0.052903
   2 C :   -0.388809    0.026270
   3 C :    0.347673    0.202869
   4 C :    0.451445   -0.133489
   5 C :   -0.464546    0.210614
   6 C :    0.550557   -0.089197
   7 C :    0.246267    0.221601
   8 C :   -0.385429   -0.108926
   9 H :    0.129107   -0.011434
  10 H :    0.132635    0.005088
  11 C :   -0.295627    0.699675
  12 H :    0.133426   -0.036615
  13 C :   -0.268189   -0.046187
  14 H :    0.150129    0.031236
  15 H :    0.150062    0.031176
  16 C :   -0.283185    0.002312
  17 H :    0.153610   -0.000173
  18 H :    0.153581   -0.000172
  19 C :   -0.507309   -0.000777
  20 H :    0.157099    0.000178
  21 H :    0.157096    0.000178
  22 C :   -0.353449   -0.016778
  23 H :    0.150279    0.010760
  24 H :    0.150211    0.010761
  25 C :   -0.267381    0.000909
  26 H :    0.139595    0.000180
  27 H :    0.139593    0.000180
  28 C :   -0.254496   -0.000230
  29 H :    0.141434    0.000044
  30 H :    0.141450    0.000044
  31 C :   -0.508773   -0.000086
  32 H :    0.158175    0.000025
  33 H :    0.158177    0.000025
  34 C :   -0.300512   -0.041449
  35 H :    0.183383   -0.004046
  36 H :    0.145011   -0.000171
  37 H :    0.142499   -0.000005
  38 C :    0.593875    0.008193
  39 C :   -0.282290   -0.009732
  40 C :   -0.097301    0.004798
  41 C :   -0.120916   -0.010658
  42 C :   -0.101369    0.004787
  43 C :   -0.274097   -0.009759
  44 H :    0.105991    0.000586
  45 H :    0.105287   -0.000221
  46 H :    0.118835    0.000500
  47 H :    0.118585    0.000499
  48 H :    0.105225   -0.000220
Sum of atomic charges         :   -0.0000000

LOEWDIN ATOMIC CHARGES AND SPIN POPULATIONS
-------------------------------------------
   0 C :   -0.066102    0.079608
   1 C :   -0.033816   -0.022262
   2 C :   -0.027587    0.015466
   3 C :   -0.060131    0.162753
   4 C :   -0.067711   -0.069230
   5 C :    0.007677    0.167860
   6 C :   -0.067337   -0.057445
   7 C :   -0.041778    0.174980
   8 C :   -0.009882   -0.063892
   9 H :    0.061627    0.001068
  10 H :    0.064045   -0.000512
  11 C :   -0.009605    0.579063
  12 H :    0.061605    0.003954
  13 C :   -0.087775    0.003587
  14 H :    0.056728    0.025495
  15 H :    0.056700    0.025444
  16 C :   -0.093471    0.000983
  17 H :    0.045170   -0.000065
  18 H :    0.045163   -0.000065
  19 C :   -0.084301   -0.000128
  20 H :    0.036566    0.000217
  21 H :    0.036567    0.000217
  22 C :   -0.049303    0.001638
  23 H :    0.061788    0.008518
  24 H :    0.061792    0.008515
  25 C :   -0.084409    0.000197
  26 H :    0.047246    0.000009
  27 H :    0.047246    0.000009
  28 C :   -0.096533    0.000009
  29 H :    0.043363    0.000062
  30 H :    0.043364    0.000063
  31 C :   -0.084884   -0.000032
  32 H :    0.036586    0.000017
  33 H :    0.036588    0.000017
  34 C :   -0.033776   -0.032407
  35 H :    0.048456    0.000370
  36 H :    0.034650   -0.000084
  37 H :    0.033809   -0.000006
  38 C :   -0.073746    0.004325
  39 C :   -0.016811   -0.007856
  40 C :   -0.044950    0.002910
  41 C :   -0.044653   -0.008368
  42 C :   -0.045293    0.002904
  43 C :   -0.017054   -0.007840
  44 H :    0.051722   -0.000058
  45 H :    0.052838    0.000024
  46 H :    0.058470   -0.000026
  47 H :    0.058244   -0.000027
  48 H :    0.052899    0.000024

  Mayer bond orders larger than 0.100000
B(  0-C ,  1-C ) :   2.6888 B(  0-C , 35-H ) :   0.9873 B(  1-C ,  3-C ) :   0.9259
B(  2-C ,  6-C ) :   0.7852 B(  2-C , 34-C ) :   2.5192 B(  3-C ,  4-C ) :   1.2477
B(  3-C ,  8-C ) :   1.4269 B(  4-C ,  5-C ) :   1.2294 B(  4-C ,  6-C ) :   0.1181
B(  4-C , 11-C ) :   1.2679 B(  5-C ,  6-C ) :   1.4983 B(  5-C ,  9-H ) :   0.9704
B(  6-C ,  7-C ) :   1.3297 B(  6-C ,  8-C ) :   0.1252 B(  6-C , 34-C ) :   0.1016
B(  7-C ,  8-C ) :   1.4170 B(  7-C , 22-C ) :   0.9673 B(  8-C , 10-H ) :   0.9718
B( 11-C , 12-H ) :   0.9906 B( 11-C , 13-C ) :   1.0054 B( 13-C , 14-H ) :   0.9542
B( 13-C , 15-H ) :   0.9541 B( 13-C , 16-C ) :   0.9811 B( 16-C , 17-H ) :   0.9720
B( 16-C , 18-H ) :   0.9719 B( 16-C , 19-C ) :   0.9610 B( 19-C , 20-H ) :   0.9728
B( 19-C , 21-H ) :   0.9728 B( 19-C , 36-H ) :   0.9672 B( 22-C , 23-H ) :   0.9545
B( 22-C , 24-H ) :   0.9547 B( 22-C , 25-C ) :   1.0247 B( 25-C , 26-H ) :   0.9608
B( 25-C , 27-H ) :   0.9608 B( 25-C , 28-C ) :   0.9883 B( 28-C , 29-H ) :   0.9713
B( 28-C , 30-H ) :   0.9713 B( 28-C , 31-C ) :   0.9543 B( 31-C , 32-H ) :   0.9730
B( 31-C , 33-H ) :   0.9730 B( 31-C , 37-H ) :   0.9671 B( 34-C , 38-C ) :   1.0077
B( 38-C , 39-C ) :   1.3907 B( 38-C , 40-C ) :   0.1002 B( 38-C , 43-C ) :   1.3852
B( 39-C , 40-C ) :   1.4763 B( 39-C , 41-C ) :   0.1007 B( 39-C , 46-H ) :   0.9826
B( 40-C , 41-C ) :   1.4527 B( 40-C , 48-H ) :   0.9762 B( 41-C , 42-C ) :   1.4553
B( 41-C , 43-C ) :   0.1017 B( 41-C , 44-H ) :   0.9659 B( 42-C , 43-C ) :   1.4766
B( 42-C , 45-H ) :   0.9771 B( 43-C , 47-H ) :   0.9803

FINAL SINGLE POINT ENERGY      -928.971736967003

DIPOLE MOMENT
-------------
                                X             Y             Z
Electronic contribution:      9.50761      -2.46536      -0.00449
Nuclear contribution   :     -9.07844       2.40891       0.00614
                        -----------------------------------------
Total Dipole Moment    :      0.42917      -0.05644       0.00166
                        -----------------------------------------
Magnitude (a.u.)       :      0.43287
Magnitude (Debye)      :      1.10027

Rotational constants in cm-1:     0.006649     0.004192     0.002580
Rotational constants in MHz :   199.340829   125.673366    77.338746

CHEMICAL SHIELDING SUMMARY (ppm)  --  Orbital contribution
----------------------------------------------------------

  Nucleus  Element    Isotropic     Anisotropy
  -------  -------  ------------   ------------
      9       H           95.689         18.395
     10       H           35.634         36.706
     12       H            2.454         10.531
     14       H           93.747         14.411
     15       H           93.860         14.362
     17       H            2.827         30.585
     18       H            2.715         30.592
     20       H           38.966         13.119
     21       H           38.871         13.155
     23       H           96.524         31.535
     24       H           96.537         31.515
     26       H           55.854         29.830
     27       H           55.845         29.821
     29       H           55.129         19.639
     30       H           55.123         19.637
     32       H            8.517         21.893
     33       H            8.516         21.895
     35       H          -95.512        -92.870
     36       H          -79.883        -34.316
     37       H          -47.083         25.551
     44       H         -126.124       -180.235
     45       H          -55.140          0.478
     46       H           88.580         19.470
     47       H           88.134         21.994
     48       H          -54.253          1.235

                             ****ORCA TERMINATED NORMALLY****
TOTAL RUN TIME: 0 days 1 hours 30 minutes 17 seconds 870 msec
