                         Program Version 5.0.4 -  RELEASE  -
|  1> ! B3LYP EPR-II AUTOAUX
|  2> %pal nprocs 16 end
|  3> *XYZFile 0 2 opt.xyz
|  4> %EPRNMR
|  5>         GTENSOR   TRUE
|  6>         NUCLEI    = ALL H {SHIFT, AISO, ADIP, AORB}
|  7>         ORI       GIAO
|  8> END
|  9>
| 10>                          ****END OF INPUT****

CARTESIAN COORDINATES (ANGSTROEM)
---------------------------------
  C     -4.052268    0.115614   -0.001692
  C     -2.836565    0.052160   -0.003421
  C      2.842829   -0.004216   -0.002352
  C     -1.410014    0.002656   -0.003149
  C     -0.708139   -1.258090   -0.002726
  C      0.713185   -1.192512   -0.002392
  C      1.414143    0.016922   -0.002570
  C      0.706182    1.260759   -0.003012
  C     -0.689438    1.209567   -0.003370
  H      1.288191   -2.118709   -0.002058
  H     -1.263059    2.136269   -0.003793
  C     -1.396801   -2.492011   -0.002645
  H     -2.489358   -2.454708   -0.003064
  C     -0.741126   -3.840380   -0.002172
  H     -0.069922   -3.936290   -0.880793
  H     -0.068807   -3.935156    0.875698
  C     -1.739120   -5.005603   -0.000787
  H     -2.397379   -4.914277    0.882428
  H     -2.398569   -4.915385   -0.883231
  C     -1.061646   -6.377131   -0.000385
  H     -0.420496   -6.507557    0.888639
  H     -0.421640   -6.508641   -0.890074
  C      1.479774    2.562726   -0.003141
  H      2.157489    2.561725    0.871211
  H      2.158029    2.561237   -0.877070
  C      0.660782    3.856198   -0.003729
  H     -0.002282    3.880554   -0.888104
  H     -0.002671    3.881100    0.880341
  C      1.541048    5.111788   -0.003930
  H      2.207161    5.089300    0.878622
  H      2.207254    5.088941   -0.886402
  C      0.734674    6.412803   -0.004240
  H      0.084530    6.481508    0.885049
  H      0.084510    6.481072   -0.893549
  C      4.064589   -0.029084   -0.003390
  H     -5.122850    0.176841    0.002017
  H     -1.802776   -7.192512    0.000594
  H      1.393262    7.296517   -0.004468
  C      5.492574   -0.059283   -0.003026
  C      6.185759   -1.289431   -0.002819
  C      7.580089   -1.313817   -0.002390
  C      8.308273   -0.118677   -0.002188
  C      7.631219    1.106277   -0.002419
  C      6.237203    1.140549   -0.002850
  H      9.400533   -0.141833   -0.001853
  H      8.194107    2.042827   -0.002269
  H      5.615401   -2.220203   -0.002988
  H      5.707015    2.094785   -0.003040
  H      8.103468   -2.273007   -0.002217

 Total Charge           Charge          ....    0
 Multiplicity           Mult            ....    2
 Number of Electrons    NEL             ....  169
 Basis Dimension        Dim             ....  583

ORBITAL ENERGIES
----------------
                 SPIN UP ORBITALS
  NO   OCC          E(Eh)            E(eV)
   0   1.0000     -10.227890      -278.3150
   1   1.0000     -10.223400      -278.1929
   2   1.0000     -10.221682      -278.1461
   3   1.0000     -10.211057      -277.8570
   4   1.0000     -10.208399      -277.7847
   5   1.0000     -10.205723      -277.7118
   6   1.0000     -10.205611      -277.7088
   7   1.0000     -10.205414      -277.7034
   8   1.0000     -10.204666      -277.6831
   9   1.0000     -10.204481      -277.6780
  10   1.0000     -10.203392      -277.6484
  11   1.0000     -10.202352      -277.6201
  12   1.0000     -10.201063      -277.5850
  13   1.0000     -10.200196      -277.5615
  14   1.0000     -10.197792      -277.4960
  15   1.0000     -10.197077      -277.4766
  16   1.0000     -10.195863      -277.4435
  17   1.0000     -10.189656      -277.2746
  18   1.0000     -10.188042      -277.2307
  19   1.0000     -10.184684      -277.1393
  20   1.0000     -10.182755      -277.0868
  21   1.0000     -10.182405      -277.0773
  22   1.0000     -10.174927      -276.8738
  23   1.0000     -10.173241      -276.8280
  24   1.0000      -0.873429       -23.7672
  25   1.0000      -0.863734       -23.5034
  26   1.0000      -0.819129       -22.2896
  27   1.0000      -0.797915       -21.7124
  28   1.0000      -0.794963       -21.6320
  29   1.0000      -0.778824       -21.1929
  30   1.0000      -0.766743       -20.8641
  31   1.0000      -0.751752       -20.4562
  32   1.0000      -0.745024       -20.2731
  33   1.0000      -0.729128       -19.8406
  34   1.0000      -0.714861       -19.4524
  35   1.0000      -0.696602       -18.9555
  36   1.0000      -0.655657       -17.8413
  37   1.0000      -0.644154       -17.5283
  38   1.0000      -0.619979       -16.8705
  39   1.0000      -0.611665       -16.6442
  40   1.0000      -0.610139       -16.6027
  41   1.0000      -0.592143       -16.1130
  42   1.0000      -0.579287       -15.7632
  43   1.0000      -0.561616       -15.2823
  44   1.0000      -0.542604       -14.7650
  45   1.0000      -0.531154       -14.4534
  46   1.0000      -0.507356       -13.8059
  47   1.0000      -0.490940       -13.3592
  48   1.0000      -0.481061       -13.0903
  49   1.0000      -0.476318       -12.9613
  50   1.0000      -0.470492       -12.8027
  51   1.0000      -0.462086       -12.5740
  52   1.0000      -0.457634       -12.4529
  53   1.0000      -0.438341       -11.9279
  54   1.0000      -0.431784       -11.7494
  55   1.0000      -0.429131       -11.6773
  56   1.0000      -0.425970       -11.5912
  57   1.0000      -0.425408       -11.5759
  58   1.0000      -0.421899       -11.4804
  59   1.0000      -0.411410       -11.1950
  60   1.0000      -0.398263       -10.8373
  61   1.0000      -0.397370       -10.8130
  62   1.0000      -0.383717       -10.4415
  63   1.0000      -0.378402       -10.2969
  64   1.0000      -0.377435       -10.2705
  65   1.0000      -0.364623        -9.9219
  66   1.0000      -0.362874        -9.8743
  67   1.0000      -0.356553        -9.7023
  68   1.0000      -0.354333        -9.6419
  69   1.0000      -0.352284        -9.5861
  70   1.0000      -0.339522        -9.2389
  71   1.0000      -0.332399        -9.0450
  72   1.0000      -0.332069        -9.0360
  73   1.0000      -0.330381        -8.9901
  74   1.0000      -0.327196        -8.9035
  75   1.0000      -0.323164        -8.7937
  76   1.0000      -0.321372        -8.7450
  77   1.0000      -0.298079        -8.1111
  78   1.0000      -0.275369        -7.4932
  79   1.0000      -0.275349        -7.4926
  80   1.0000      -0.269659        -7.3378
  81   1.0000      -0.259540        -7.0624
  82   1.0000      -0.256631        -6.9833
  83   1.0000      -0.215619        -5.8673
  84   1.0000      -0.173669        -4.7258
  85   0.0000      -0.062154        -1.6913
  86   0.0000      -0.014756        -0.4015
  87   0.0000      -0.012351        -0.3361
  88   0.0000       0.014101         0.3837
  89   0.0000       0.014277         0.3885

                 SPIN DOWN ORBITALS
  NO   OCC          E(Eh)            E(eV)
   0   1.0000     -10.227756      -278.3114
   1   1.0000     -10.223243      -278.1886
   2   1.0000     -10.219999      -278.1003
   3   1.0000     -10.210811      -277.8503
   4   1.0000     -10.207637      -277.7639
   5   1.0000     -10.205841      -277.7150
   6   1.0000     -10.205728      -277.7120
   7   1.0000     -10.205543      -277.7069
   8   1.0000     -10.204623      -277.6819
   9   1.0000     -10.204460      -277.6775
  10   1.0000     -10.204177      -277.6698
  11   1.0000     -10.202625      -277.6275
  12   1.0000     -10.200096      -277.5587
  13   1.0000     -10.198638      -277.5190
  14   1.0000     -10.197992      -277.5015
  15   1.0000     -10.194586      -277.4088
  16   1.0000     -10.190324      -277.2928
  17   1.0000     -10.188241      -277.2361
  18   1.0000     -10.187866      -277.2259
  19   1.0000     -10.184647      -277.1383
  20   1.0000     -10.182755      -277.0869
  21   1.0000     -10.182403      -277.0773
  22   1.0000     -10.174936      -276.8741
  23   1.0000     -10.173242      -276.8280
  24   1.0000      -0.870083       -23.6761
  25   1.0000      -0.863783       -23.5047
  26   1.0000      -0.814256       -22.1570
  27   1.0000      -0.796366       -21.6702
  28   1.0000      -0.792662       -21.5694
  29   1.0000      -0.778436       -21.1823
  30   1.0000      -0.764697       -20.8085
  31   1.0000      -0.751893       -20.4600
  32   1.0000      -0.744000       -20.2453
  33   1.0000      -0.725388       -19.7388
  34   1.0000      -0.713199       -19.4071
  35   1.0000      -0.694283       -18.8924
  36   1.0000      -0.652604       -17.7583
  37   1.0000      -0.642430       -17.4814
  38   1.0000      -0.617533       -16.8039
  39   1.0000      -0.610233       -16.6053
  40   1.0000      -0.608396       -16.5553
  41   1.0000      -0.591200       -16.0874
  42   1.0000      -0.577666       -15.7191
  43   1.0000      -0.558690       -15.2027
  44   1.0000      -0.541950       -14.7472
  45   1.0000      -0.529459       -14.4073
  46   1.0000      -0.504340       -13.7238
  47   1.0000      -0.489315       -13.3149
  48   1.0000      -0.480456       -13.0739
  49   1.0000      -0.475159       -12.9297
  50   1.0000      -0.469626       -12.7792
  51   1.0000      -0.458613       -12.4795
  52   1.0000      -0.457695       -12.4545
  53   1.0000      -0.438074       -11.9206
  54   1.0000      -0.430268       -11.7082
  55   1.0000      -0.427327       -11.6282
  56   1.0000      -0.425975       -11.5914
  57   1.0000      -0.424228       -11.5438
  58   1.0000      -0.419284       -11.4093
  59   1.0000      -0.410926       -11.1819
  60   1.0000      -0.396231       -10.7820
  61   1.0000      -0.390681       -10.6310
  62   1.0000      -0.383153       -10.4261
  63   1.0000      -0.376054       -10.2329
  64   1.0000      -0.374172       -10.1817
  65   1.0000      -0.363441        -9.8897
  66   1.0000      -0.362896        -9.8749
  67   1.0000      -0.355664        -9.6781
  68   1.0000      -0.352306        -9.5867
  69   1.0000      -0.351211        -9.5569
  70   1.0000      -0.337168        -9.1748
  71   1.0000      -0.331549        -9.0219
  72   1.0000      -0.330962        -9.0059
  73   1.0000      -0.328131        -8.9289
  74   1.0000      -0.326820        -8.8932
  75   1.0000      -0.322414        -8.7733
  76   1.0000      -0.321046        -8.7361
  77   1.0000      -0.294972        -8.0266
  78   1.0000      -0.274734        -7.4759
  79   1.0000      -0.269480        -7.3329
  80   1.0000      -0.261724        -7.1219
  81   1.0000      -0.259935        -7.0732
  82   1.0000      -0.253120        -6.8878
  83   1.0000      -0.208436        -5.6718
  84   0.0000      -0.084150        -2.2898
  85   0.0000      -0.054487        -1.4827
  86   0.0000      -0.015091        -0.4107
  87   0.0000      -0.010779        -0.2933
  88   0.0000       0.014257         0.3879

MULLIKEN ATOMIC CHARGES AND SPIN POPULATIONS
--------------------------------------------
   0 C :   -0.546507    0.099306
   1 C :   -0.010127   -0.052504
   2 C :   -0.388893    0.025799
   3 C :    0.347600    0.202507
   4 C :    0.451480   -0.133226
   5 C :   -0.464539    0.210161
   6 C :    0.550613   -0.088798
   7 C :    0.246350    0.221243
   8 C :   -0.385430   -0.108577
   9 H :    0.129103   -0.011371
  10 H :    0.132628    0.005047
  11 C :   -0.295684    0.699750
  12 H :    0.133434   -0.036623
  13 C :   -0.268190   -0.046193
  14 H :    0.150129    0.031242
  15 H :    0.150063    0.031183
  16 C :   -0.283199    0.002307
  17 H :    0.153612   -0.000172
  18 H :    0.153583   -0.000171
  19 C :   -0.507295   -0.000777
  20 H :    0.157098    0.000178
  21 H :    0.157095    0.000178
  22 C :   -0.353455   -0.016723
  23 H :    0.150278    0.010748
  24 H :    0.150210    0.010748
  25 C :   -0.267365    0.000906
  26 H :    0.139591    0.000180
  27 H :    0.139589    0.000180
  28 C :   -0.254512   -0.000229
  29 H :    0.141432    0.000044
  30 H :    0.141448    0.000044
  31 C :   -0.508756   -0.000085
  32 H :    0.158174    0.000025
  33 H :    0.158175    0.000025
  34 C :   -0.300466   -0.040922
  35 H :    0.183403   -0.004002
  36 H :    0.145011   -0.000170
  37 H :    0.142495   -0.000006
  38 C :    0.593945    0.007855
  39 C :   -0.282281   -0.009444
  40 C :   -0.097332    0.004546
  41 C :   -0.120988   -0.010368
  42 C :   -0.101387    0.004530
  43 C :   -0.274093   -0.009466
  44 H :    0.106015    0.000553
  45 H :    0.105299   -0.000196
  46 H :    0.118831    0.000469
  47 H :    0.118581    0.000469
  48 H :    0.105237   -0.000196
Sum of atomic charges         :   -0.0000000

LOEWDIN ATOMIC CHARGES AND SPIN POPULATIONS
-------------------------------------------
   0 C :   -0.066120    0.079291
   1 C :   -0.033802   -0.022010
   2 C :   -0.027569    0.015046
   3 C :   -0.060169    0.162546
   4 C :   -0.067738   -0.069094
   5 C :    0.007688    0.167567
   6 C :   -0.067298   -0.057189
   7 C :   -0.041741    0.174752
   8 C :   -0.009888   -0.063670
   9 H :    0.061625    0.001086
  10 H :    0.064042   -0.000521
  11 C :   -0.009624    0.579143
  12 H :    0.061606    0.003956
  13 C :   -0.087778    0.003588
  14 H :    0.056729    0.025500
  15 H :    0.056701    0.025448
  16 C :   -0.093475    0.000981
  17 H :    0.045171   -0.000065
  18 H :    0.045165   -0.000065
  19 C :   -0.084297   -0.000128
  20 H :    0.036566    0.000217
  21 H :    0.036567    0.000217
  22 C :   -0.049293    0.001650
  23 H :    0.061788    0.008510
  24 H :    0.061792    0.008508
  25 C :   -0.084410    0.000196
  26 H :    0.047245    0.000009
  27 H :    0.047245    0.000009
  28 C :   -0.096536    0.000009
  29 H :    0.043363    0.000062
  30 H :    0.043364    0.000062
  31 C :   -0.084881   -0.000032
  32 H :    0.036586    0.000017
  33 H :    0.036587    0.000017
  34 C :   -0.033786   -0.031984
  35 H :    0.048466    0.000382
  36 H :    0.034651   -0.000084
  37 H :    0.033808   -0.000006
  38 C :   -0.073711    0.004139
  39 C :   -0.016803   -0.007655
  40 C :   -0.044970    0.002745
  41 C :   -0.044701   -0.008176
  42 C :   -0.045312    0.002739
  43 C :   -0.017044   -0.007639
  44 H :    0.051731   -0.000065
  45 H :    0.052843    0.000029
  46 H :    0.058468   -0.000033
  47 H :    0.058243   -0.000033
  48 H :    0.052904    0.000029

  Mayer bond orders larger than 0.100000
B(  0-C ,  1-C ) :   2.6888 B(  0-C , 35-H ) :   0.9873 B(  1-C ,  3-C ) :   0.9259
B(  2-C ,  6-C ) :   0.7851 B(  2-C , 34-C ) :   2.5192 B(  3-C ,  4-C ) :   1.2477
B(  3-C ,  8-C ) :   1.4269 B(  4-C ,  5-C ) :   1.2295 B(  4-C ,  6-C ) :   0.1181
B(  4-C , 11-C ) :   1.2677 B(  5-C ,  6-C ) :   1.4983 B(  5-C ,  9-H ) :   0.9704
B(  6-C ,  7-C ) :   1.3298 B(  6-C ,  8-C ) :   0.1252 B(  6-C , 34-C ) :   0.1016
B(  7-C ,  8-C ) :   1.4171 B(  7-C , 22-C ) :   0.9673 B(  8-C , 10-H ) :   0.9718
B( 11-C , 12-H ) :   0.9906 B( 11-C , 13-C ) :   1.0054 B( 13-C , 14-H ) :   0.9542
B( 13-C , 15-H ) :   0.9541 B( 13-C , 16-C ) :   0.9811 B( 16-C , 17-H ) :   0.9720
B( 16-C , 18-H ) :   0.9719 B( 16-C , 19-C ) :   0.9610 B( 19-C , 20-H ) :   0.9728
B( 19-C , 21-H ) :   0.9728 B( 19-C , 36-H ) :   0.9672 B( 22-C , 23-H ) :   0.9545
B( 22-C , 24-H ) :   0.9546 B( 22-C , 25-C ) :   1.0247 B( 25-C , 26-H ) :   0.9608
B( 25-C , 27-H ) :   0.9608 B( 25-C , 28-C ) :   0.9883 B( 28-C , 29-H ) :   0.9713
B( 28-C , 30-H ) :   0.9713 B( 28-C , 31-C ) :   0.9543 B( 31-C , 32-H ) :   0.9730
B( 31-C , 33-H ) :   0.9730 B( 31-C , 37-H ) :   0.9671 B( 34-C , 38-C ) :   1.0077
B( 38-C , 39-C ) :   1.3907 B( 38-C , 40-C ) :   0.1002 B( 38-C , 43-C ) :   1.3852
B( 39-C , 40-C ) :   1.4764 B( 39-C , 41-C ) :   0.1007 B( 39-C , 46-H ) :   0.9826
B( 40-C , 41-C ) :   1.4527 B( 40-C , 48-H ) :   0.9762 B( 41-C , 42-C ) :   1.4553
B( 41-C , 43-C ) :   0.1017 B( 41-C , 44-H ) :   0.9659 B( 42-C , 43-C ) :   1.4766
B( 42-C , 45-H ) :   0.9771 B( 43-C , 47-H ) :   0.9803

FINAL SINGLE POINT ENERGY      -928.971734811614

DIPOLE MOMENT
-------------
                                X             Y             Z
Electronic contribution:      9.50751      -2.46518      -0.00449
Nuclear contribution   :     -9.07844       2.40891       0.00614
                        -----------------------------------------
Total Dipole Moment    :      0.42908      -0.05626       0.00166
                        -----------------------------------------
Magnitude (a.u.)       :      0.43275
Magnitude (Debye)      :      1.09997

Rotational constants in cm-1:     0.006649     0.004192     0.002580
Rotational constants in MHz :   199.340829   125.673366    77.338746

CHEMICAL SHIELDING SUMMARY (ppm)  --  Orbital contribution
----------------------------------------------------------

  Nucleus  Element    Isotropic     Anisotropy
  -------  -------  ------------   ------------
      9       H           24.421         12.155
     10       H           24.455         12.709
     12       H           25.399         11.893
     14       H           29.166          4.447
     15       H           29.165          4.450
     17       H           29.900          6.807
     18       H           29.900          6.810
     20       H           30.735          7.931
     21       H           30.735          7.931
     23       H           28.779          6.001
     24       H           28.779          6.006
     26       H           30.011          4.927
     27       H           30.011          4.926
     29       H           30.090          6.292
     30       H           30.090          6.292
     32       H           30.695          8.099
     33       H           30.695          8.099
     35       H           28.283         10.162
     36       H           30.466         10.157
     37       H           30.466         10.321
     44       H           24.288          4.588
     45       H           24.292          5.533
     46       H           24.046          7.924
     47       H           24.018          8.031
     48       H           24.277          5.201

                             ****ORCA TERMINATED NORMALLY****
TOTAL RUN TIME: 0 days 1 hours 31 minutes 32 seconds 72 msec
