                         Program Version 5.0.4 -  RELEASE  -
|  1> ! B3LYP EPR-II AUTOAUX
|  2> %pal nprocs 16 end
|  3> *XYZFile 0 2 opt.xyz
|  4> %EPRNMR
|  5>         GTENSOR   TRUE
|  6>         NUCLEI    = ALL H {SHIFT, AISO, ADIP, AORB}
|  7> END
|  8>
|  9>                          ****END OF INPUT****

CARTESIAN COORDINATES (ANGSTROEM)
---------------------------------
  C     -4.052268    0.115614   -0.001692
  C     -2.836565    0.052160   -0.003421
  C      2.842829   -0.004216   -0.002352
  C     -1.410014    0.002656   -0.003149
  C     -0.708139   -1.258090   -0.002726
  C      0.713185   -1.192512   -0.002392
  C      1.414143    0.016922   -0.002570
  C      0.706182    1.260759   -0.003012
  C     -0.689438    1.209567   -0.003370
  H      1.288191   -2.118709   -0.002058
  H     -1.263059    2.136269   -0.003793
  C     -1.396801   -2.492011   -0.002645
  H     -2.489358   -2.454708   -0.003064
  C     -0.741126   -3.840380   -0.002172
  H     -0.069922   -3.936290   -0.880793
  H     -0.068807   -3.935156    0.875698
  C     -1.739120   -5.005603   -0.000787
  H     -2.397379   -4.914277    0.882428
  H     -2.398569   -4.915385   -0.883231
  C     -1.061646   -6.377131   -0.000385
  H     -0.420496   -6.507557    0.888639
  H     -0.421640   -6.508641   -0.890074
  C      1.479774    2.562726   -0.003141
  H      2.157489    2.561725    0.871211
  H      2.158029    2.561237   -0.877070
  C      0.660782    3.856198   -0.003729
  H     -0.002282    3.880554   -0.888104
  H     -0.002671    3.881100    0.880341
  C      1.541048    5.111788   -0.003930
  H      2.207161    5.089300    0.878622
  H      2.207254    5.088941   -0.886402
  C      0.734674    6.412803   -0.004240
  H      0.084530    6.481508    0.885049
  H      0.084510    6.481072   -0.893549
  C      4.064589   -0.029084   -0.003390
  H     -5.122850    0.176841    0.002017
  H     -1.802776   -7.192512    0.000594
  H      1.393262    7.296517   -0.004468
  C      5.492574   -0.059283   -0.003026
  C      6.185759   -1.289431   -0.002819
  C      7.580089   -1.313817   -0.002390
  C      8.308273   -0.118677   -0.002188
  C      7.631219    1.106277   -0.002419
  C      6.237203    1.140549   -0.002850
  H      9.400533   -0.141833   -0.001853
  H      8.194107    2.042827   -0.002269
  H      5.615401   -2.220203   -0.002988
  H      5.707015    2.094785   -0.003040
  H      8.103468   -2.273007   -0.002217

 Total Charge           Charge          ....    0
 Multiplicity           Mult            ....    2
 Number of Electrons    NEL             ....  169
 Basis Dimension        Dim             ....  583

ORBITAL ENERGIES
----------------
                 SPIN UP ORBITALS
  NO   OCC          E(Eh)            E(eV)
   0   1.0000     -10.227892      -278.3151
   1   1.0000     -10.223291      -278.1899
   2   1.0000     -10.221884      -278.1516
   3   1.0000     -10.211216      -277.8613
   4   1.0000     -10.208296      -277.7818
   5   1.0000     -10.205700      -277.7112
   6   1.0000     -10.205578      -277.7079
   7   1.0000     -10.205312      -277.7007
   8   1.0000     -10.204602      -277.6813
   9   1.0000     -10.204402      -277.6759
  10   1.0000     -10.203350      -277.6473
  11   1.0000     -10.202388      -277.6211
  12   1.0000     -10.201132      -277.5869
  13   1.0000     -10.200253      -277.5630
  14   1.0000     -10.197702      -277.4936
  15   1.0000     -10.197064      -277.4762
  16   1.0000     -10.195860      -277.4435
  17   1.0000     -10.189626      -277.2738
  18   1.0000     -10.188119      -277.2328
  19   1.0000     -10.184661      -277.1387
  20   1.0000     -10.182748      -277.0867
  21   1.0000     -10.182409      -277.0774
  22   1.0000     -10.174931      -276.8739
  23   1.0000     -10.173245      -276.8281
  24   1.0000      -0.873457       -23.7680
  25   1.0000      -0.863700       -23.5025
  26   1.0000      -0.819140       -22.2899
  27   1.0000      -0.797917       -21.7124
  28   1.0000      -0.794971       -21.6322
  29   1.0000      -0.778797       -21.1922
  30   1.0000      -0.766745       -20.8642
  31   1.0000      -0.751721       -20.4554
  32   1.0000      -0.745035       -20.2734
  33   1.0000      -0.729131       -19.8407
  34   1.0000      -0.714872       -19.4527
  35   1.0000      -0.696607       -18.9556
  36   1.0000      -0.655662       -17.8415
  37   1.0000      -0.644161       -17.5285
  38   1.0000      -0.619971       -16.8703
  39   1.0000      -0.611671       -16.6444
  40   1.0000      -0.610105       -16.6018
  41   1.0000      -0.592140       -16.1130
  42   1.0000      -0.579290       -15.7633
  43   1.0000      -0.561619       -15.2824
  44   1.0000      -0.542594       -14.7647
  45   1.0000      -0.531161       -14.4536
  46   1.0000      -0.507378       -13.8065
  47   1.0000      -0.490938       -13.3591
  48   1.0000      -0.481050       -13.0900
  49   1.0000      -0.476324       -12.9614
  50   1.0000      -0.470513       -12.8033
  51   1.0000      -0.462071       -12.5736
  52   1.0000      -0.457596       -12.4518
  53   1.0000      -0.438315       -11.9272
  54   1.0000      -0.431792       -11.7496
  55   1.0000      -0.429138       -11.6774
  56   1.0000      -0.425945       -11.5906
  57   1.0000      -0.425404       -11.5758
  58   1.0000      -0.421932       -11.4813
  59   1.0000      -0.411417       -11.1952
  60   1.0000      -0.398251       -10.8369
  61   1.0000      -0.397379       -10.8132
  62   1.0000      -0.383711       -10.4413
  63   1.0000      -0.378406       -10.2970
  64   1.0000      -0.377423       -10.2702
  65   1.0000      -0.364632        -9.9221
  66   1.0000      -0.362841        -9.8734
  67   1.0000      -0.356562        -9.7026
  68   1.0000      -0.354341        -9.6421
  69   1.0000      -0.352252        -9.5853
  70   1.0000      -0.339505        -9.2384
  71   1.0000      -0.332423        -9.0457
  72   1.0000      -0.332053        -9.0356
  73   1.0000      -0.330370        -8.9898
  74   1.0000      -0.327205        -8.9037
  75   1.0000      -0.323191        -8.7945
  76   1.0000      -0.321385        -8.7453
  77   1.0000      -0.298067        -8.1108
  78   1.0000      -0.275361        -7.4930
  79   1.0000      -0.275334        -7.4922
  80   1.0000      -0.269695        -7.3388
  81   1.0000      -0.259510        -7.0616
  82   1.0000      -0.256640        -6.9835
  83   1.0000      -0.215632        -5.8677
  84   1.0000      -0.173665        -4.7257
  85   0.0000      -0.062159        -1.6914
  86   0.0000      -0.014726        -0.4007
  87   0.0000      -0.012349        -0.3360
  88   0.0000       0.014095         0.3835
  89   0.0000       0.014280         0.3886

                 SPIN DOWN ORBITALS
  NO   OCC          E(Eh)            E(eV)
   0   1.0000     -10.227750      -278.3112
   1   1.0000     -10.223457      -278.1944
   2   1.0000     -10.219880      -278.0971
   3   1.0000     -10.210714      -277.8476
   4   1.0000     -10.207787      -277.7680
   5   1.0000     -10.205828      -277.7147
   6   1.0000     -10.205704      -277.7113
   7   1.0000     -10.205438      -277.7041
   8   1.0000     -10.204553      -277.6800
   9   1.0000     -10.204380      -277.6753
  10   1.0000     -10.204144      -277.6689
  11   1.0000     -10.202602      -277.6269
  12   1.0000     -10.200210      -277.5618
  13   1.0000     -10.198632      -277.5189
  14   1.0000     -10.198048      -277.5030
  15   1.0000     -10.194574      -277.4085
  16   1.0000     -10.190293      -277.2920
  17   1.0000     -10.188318      -277.2382
  18   1.0000     -10.187778      -277.2235
  19   1.0000     -10.184624      -277.1377
  20   1.0000     -10.182749      -277.0867
  21   1.0000     -10.182406      -277.0774
  22   1.0000     -10.174939      -276.8742
  23   1.0000     -10.173246      -276.8281
  24   1.0000      -0.870111       -23.6769
  25   1.0000      -0.863751       -23.5039
  26   1.0000      -0.814268       -22.1573
  27   1.0000      -0.796386       -21.6708
  28   1.0000      -0.792651       -21.5691
  29   1.0000      -0.778414       -21.1817
  30   1.0000      -0.764698       -20.8085
  31   1.0000      -0.751864       -20.4593
  32   1.0000      -0.744006       -20.2454
  33   1.0000      -0.725393       -19.7390
  34   1.0000      -0.713209       -19.4074
  35   1.0000      -0.694282       -18.8924
  36   1.0000      -0.652615       -17.7586
  37   1.0000      -0.642434       -17.4815
  38   1.0000      -0.617517       -16.8035
  39   1.0000      -0.610201       -16.6044
  40   1.0000      -0.608408       -16.5556
  41   1.0000      -0.591197       -16.0873
  42   1.0000      -0.577671       -15.7192
  43   1.0000      -0.558693       -15.2028
  44   1.0000      -0.541936       -14.7468
  45   1.0000      -0.529466       -14.4075
  46   1.0000      -0.504364       -13.7244
  47   1.0000      -0.489308       -13.3147
  48   1.0000      -0.480446       -13.0736
  49   1.0000      -0.475170       -12.9300
  50   1.0000      -0.469645       -12.7797
  51   1.0000      -0.458601       -12.4792
  52   1.0000      -0.457658       -12.4535
  53   1.0000      -0.438046       -11.9198
  54   1.0000      -0.430281       -11.7085
  55   1.0000      -0.427330       -11.6282
  56   1.0000      -0.425949       -11.5907
  57   1.0000      -0.424226       -11.5438
  58   1.0000      -0.419313       -11.4101
  59   1.0000      -0.410933       -11.1820
  60   1.0000      -0.396239       -10.7822
  61   1.0000      -0.390676       -10.6308
  62   1.0000      -0.383141       -10.4258
  63   1.0000      -0.376059       -10.2331
  64   1.0000      -0.374172       -10.1817
  65   1.0000      -0.363450        -9.8900
  66   1.0000      -0.362863        -9.8740
  67   1.0000      -0.355672        -9.6783
  68   1.0000      -0.352275        -9.5859
  69   1.0000      -0.351216        -9.5571
  70   1.0000      -0.337154        -9.1744
  71   1.0000      -0.331533        -9.0215
  72   1.0000      -0.330979        -9.0064
  73   1.0000      -0.328121        -8.9286
  74   1.0000      -0.326828        -8.8934
  75   1.0000      -0.322439        -8.7740
  76   1.0000      -0.321058        -8.7364
  77   1.0000      -0.294963        -8.0263
  78   1.0000      -0.274717        -7.4754
  79   1.0000      -0.269515        -7.3339
  80   1.0000      -0.261720        -7.1218
  81   1.0000      -0.259910        -7.0725
  82   1.0000      -0.253126        -6.8879
  83   1.0000      -0.208451        -5.6723
  84   0.0000      -0.084129        -2.2893
  85   0.0000      -0.054488        -1.4827
  86   0.0000      -0.015066        -0.4100
  87   0.0000      -0.010777        -0.2933
  88   0.0000       0.014253         0.3879

MULLIKEN ATOMIC CHARGES AND SPIN POPULATIONS
--------------------------------------------
   0 C :   -0.546599    0.099509
   1 C :   -0.010030   -0.052696
   2 C :   -0.389202    0.026006
   3 C :    0.347757    0.202688
   4 C :    0.451532   -0.133361
   5 C :   -0.464567    0.210381
   6 C :    0.550411   -0.088988
   7 C :    0.246156    0.221416
   8 C :   -0.385388   -0.108747
   9 H :    0.129121   -0.011403
  10 H :    0.132637    0.005067
  11 C :   -0.295579    0.699719
  12 H :    0.133415   -0.036619
  13 C :   -0.268190   -0.046191
  14 H :    0.150119    0.031239
  15 H :    0.150053    0.031180
  16 C :   -0.283184    0.002309
  17 H :    0.153609   -0.000173
  18 H :    0.153581   -0.000171
  19 C :   -0.507315   -0.000777
  20 H :    0.157099    0.000178
  21 H :    0.157096    0.000178
  22 C :   -0.353491   -0.016750
  23 H :    0.150293    0.010754
  24 H :    0.150226    0.010754
  25 C :   -0.267356    0.000907
  26 H :    0.139597    0.000180
  27 H :    0.139594    0.000180
  28 C :   -0.254486   -0.000230
  29 H :    0.141430    0.000044
  30 H :    0.141446    0.000044
  31 C :   -0.508767   -0.000085
  32 H :    0.158174    0.000025
  33 H :    0.158176    0.000025
  34 C :   -0.300118   -0.041165
  35 H :    0.183388   -0.004023
  36 H :    0.145012   -0.000171
  37 H :    0.142498   -0.000005
  38 C :    0.593913    0.008022
  39 C :   -0.282298   -0.009578
  40 C :   -0.097296    0.004664
  41 C :   -0.120864   -0.010504
  42 C :   -0.101362    0.004651
  43 C :   -0.274115   -0.009604
  44 H :    0.105976    0.000569
  45 H :    0.105277   -0.000208
  46 H :    0.118827    0.000484
  47 H :    0.118576    0.000484
  48 H :    0.105215   -0.000208
Sum of atomic charges         :   -0.0000000

LOEWDIN ATOMIC CHARGES AND SPIN POPULATIONS
-------------------------------------------
   0 C :   -0.066191    0.079439
   1 C :   -0.033731   -0.022130
   2 C :   -0.027843    0.015246
   3 C :   -0.060048    0.162645
   4 C :   -0.067647   -0.069158
   5 C :    0.007660    0.167706
   6 C :   -0.067476   -0.057312
   7 C :   -0.041882    0.174861
   8 C :   -0.009855   -0.063777
   9 H :    0.061635    0.001077
  10 H :    0.064048   -0.000517
  11 C :   -0.009560    0.579106
  12 H :    0.061600    0.003955
  13 C :   -0.087778    0.003587
  14 H :    0.056723    0.025498
  15 H :    0.056695    0.025446
  16 C :   -0.093470    0.000982
  17 H :    0.045170   -0.000065
  18 H :    0.045163   -0.000065
  19 C :   -0.084307   -0.000128
  20 H :    0.036566    0.000217
  21 H :    0.036567    0.000217
  22 C :   -0.049317    0.001644
  23 H :    0.061793    0.008514
  24 H :    0.061797    0.008511
  25 C :   -0.084393    0.000197
  26 H :    0.047248    0.000009
  27 H :    0.047247    0.000009
  28 C :   -0.096523    0.000009
  29 H :    0.043362    0.000062
  30 H :    0.043363    0.000062
  31 C :   -0.084881   -0.000032
  32 H :    0.036586    0.000017
  33 H :    0.036588    0.000017
  34 C :   -0.033516   -0.032185
  35 H :    0.048455    0.000376
  36 H :    0.034650   -0.000084
  37 H :    0.033809   -0.000006
  38 C :   -0.073719    0.004228
  39 C :   -0.016815   -0.007749
  40 C :   -0.044946    0.002823
  41 C :   -0.044614   -0.008266
  42 C :   -0.045291    0.002817
  43 C :   -0.017065   -0.007733
  44 H :    0.051714   -0.000061
  45 H :    0.052833    0.000026
  46 H :    0.058465   -0.000030
  47 H :    0.058239   -0.000030
  48 H :    0.052893    0.000026

  Mayer bond orders larger than 0.100000
B(  0-C ,  1-C ) :   2.6888 B(  0-C , 35-H ) :   0.9873 B(  1-C ,  3-C ) :   0.9259
B(  2-C ,  6-C ) :   0.7851 B(  2-C , 34-C ) :   2.5192 B(  3-C ,  4-C ) :   1.2477
B(  3-C ,  8-C ) :   1.4269 B(  4-C ,  5-C ) :   1.2294 B(  4-C ,  6-C ) :   0.1181
B(  4-C , 11-C ) :   1.2678 B(  5-C ,  6-C ) :   1.4983 B(  5-C ,  9-H ) :   0.9704
B(  6-C ,  7-C ) :   1.3297 B(  6-C ,  8-C ) :   0.1252 B(  6-C , 34-C ) :   0.1016
B(  7-C ,  8-C ) :   1.4170 B(  7-C , 22-C ) :   0.9673 B(  8-C , 10-H ) :   0.9718
B( 11-C , 12-H ) :   0.9906 B( 11-C , 13-C ) :   1.0054 B( 13-C , 14-H ) :   0.9542
B( 13-C , 15-H ) :   0.9541 B( 13-C , 16-C ) :   0.9811 B( 16-C , 17-H ) :   0.9720
B( 16-C , 18-H ) :   0.9719 B( 16-C , 19-C ) :   0.9610 B( 19-C , 20-H ) :   0.9728
B( 19-C , 21-H ) :   0.9728 B( 19-C , 36-H ) :   0.9672 B( 22-C , 23-H ) :   0.9545
B( 22-C , 24-H ) :   0.9546 B( 22-C , 25-C ) :   1.0247 B( 25-C , 26-H ) :   0.9608
B( 25-C , 27-H ) :   0.9608 B( 25-C , 28-C ) :   0.9883 B( 28-C , 29-H ) :   0.9713
B( 28-C , 30-H ) :   0.9713 B( 28-C , 31-C ) :   0.9543 B( 31-C , 32-H ) :   0.9730
B( 31-C , 33-H ) :   0.9730 B( 31-C , 37-H ) :   0.9671 B( 34-C , 38-C ) :   1.0077
B( 38-C , 39-C ) :   1.3907 B( 38-C , 40-C ) :   0.1002 B( 38-C , 43-C ) :   1.3852
B( 39-C , 40-C ) :   1.4763 B( 39-C , 41-C ) :   0.1007 B( 39-C , 46-H ) :   0.9826
B( 40-C , 41-C ) :   1.4527 B( 40-C , 48-H ) :   0.9762 B( 41-C , 42-C ) :   1.4553
B( 41-C , 43-C ) :   0.1017 B( 41-C , 44-H ) :   0.9659 B( 42-C , 43-C ) :   1.4766
B( 42-C , 45-H ) :   0.9771 B( 43-C , 47-H ) :   0.9803

FINAL SINGLE POINT ENERGY      -928.971733764184

DIPOLE MOMENT
-------------
                                X             Y             Z
Electronic contribution:      9.50791      -2.46555      -0.00449
Nuclear contribution   :     -9.07844       2.40891       0.00614
                        -----------------------------------------
Total Dipole Moment    :      0.42947      -0.05663       0.00165
                        -----------------------------------------
Magnitude (a.u.)       :      0.43319
Magnitude (Debye)      :      1.10108

Rotational constants in cm-1:     0.006649     0.004192     0.002580
Rotational constants in MHz :   199.340829   125.673366    77.338746

CHEMICAL SHIELDING SUMMARY (ppm)  --  Orbital contribution
----------------------------------------------------------

  Nucleus  Element    Isotropic     Anisotropy
  -------  -------  ------------   ------------
      9       H           24.413         12.171
     10       H           24.456         12.705
     12       H           25.395         11.891
     14       H           29.163          4.451
     15       H           29.163          4.454
     17       H           29.903          6.809
     18       H           29.903          6.813
     20       H           30.737          7.930
     21       H           30.737          7.929
     23       H           28.777          6.005
     24       H           28.777          6.010
     26       H           30.009          4.923
     27       H           30.009          4.922
     29       H           30.084          6.292
     30       H           30.084          6.292
     32       H           30.692          8.099
     33       H           30.692          8.099
     35       H           28.281         10.169
     36       H           30.468         10.153
     37       H           30.462         10.326
     44       H           24.308          4.557
     45       H           24.298          5.520
     46       H           24.034          7.939
     47       H           24.007          8.049
     48       H           24.285          5.188

                             ****ORCA TERMINATED NORMALLY****
TOTAL RUN TIME: 0 days 1 hours 30 minutes 23 seconds 937 msec
