                         Program Version 5.0.4 -  RELEASE  -
|  1> ! B3LYP EPR-II AUTOAUX
|  2> %pal nprocs 16 end
|  3> *XYZFile 0 2 opt_EPRII.xyz
|  4> %EPRNMR
|  5>         GTENSOR   TRUE
|  6>         NUCLEI    = ALL H {SHIFT, AISO, ADIP, AORB}
|  7>         ORI       CenterOfElCharge
|  8> END
|  9>
| 10>                          ****END OF INPUT****

CARTESIAN COORDINATES (ANGSTROEM)
---------------------------------
  C     -4.061290    0.097243   -0.003202
  C     -2.840340    0.052513   -0.004175
  C      2.848212   -0.004613   -0.002808
  C     -1.410878    0.005855   -0.003739
  C     -0.709102   -1.257882   -0.003309
  C      0.715759   -1.196526   -0.003042
  C      1.416609    0.016907   -0.003117
  C      0.709302    1.264187   -0.003433
  C     -0.690083    1.216305   -0.003817
  H      1.285575   -2.119016   -0.002768
  H     -1.258721    2.139144   -0.004153
  C     -1.403807   -2.492986   -0.003062
  H     -2.489925   -2.456482   -0.003312
  C     -0.746616   -3.847576   -0.002681
  H     -0.087180   -3.946178   -0.879822
  H     -0.083959   -3.944191    0.872218
  C     -1.754451   -5.012136    0.000519
  H     -2.403490   -4.922182    0.880879
  H     -2.406906   -4.924132   -0.877516
  C     -1.073601   -6.390947    0.000713
  H     -0.437554   -6.516405    0.884356
  H     -0.440921   -6.518309   -0.885074
  C      1.486840    2.569297   -0.003405
  H      2.155628    2.570543    0.868552
  H      2.155790    2.570502   -0.875241
  C      0.658240    3.863515   -0.003491
  H      0.002713    3.887888   -0.884221
  H      0.002412    3.887792    0.877019
  C      1.540623    5.124977   -0.003274
  H      2.198559    5.106045    0.875831
  H      2.198796    5.106188   -0.882204
  C      0.723584    6.428707   -0.003274
  H      0.079270    6.489196    0.881080
  H      0.079479    6.489332   -0.887770
  C      4.073248   -0.023786   -0.003632
  H     -5.126248    0.140881   -0.001501
  H     -1.812409   -7.198818    0.002987
  H      1.375928    7.308115   -0.003129
  C      5.505221   -0.055993   -0.003216
  C      6.195829   -1.292467   -0.003138
  C      7.595063   -1.320535   -0.002633
  C      8.329430   -0.122421   -0.002224
  C      7.652183    1.108936   -0.002329
  C      6.253125    1.146554   -0.002836
  H      9.415819   -0.148062   -0.001830
  H      8.215069    2.038709   -0.002016
  H      5.625878   -2.216856   -0.003456
  H      5.727831    2.096999   -0.002920
  H      8.113815   -2.275648   -0.002559

 Total Charge           Charge          ....    0
 Multiplicity           Mult            ....    2
 Number of Electrons    NEL             ....  169
 Basis Dimension        Dim             ....  583

ORBITAL ENERGIES
----------------
                 SPIN UP ORBITALS
  NO   OCC          E(Eh)            E(eV)
   0   1.0000     -10.229117      -278.3484
   1   1.0000     -10.224339      -278.2184
   2   1.0000     -10.222687      -278.1735
   3   1.0000     -10.211954      -277.8814
   4   1.0000     -10.209348      -277.8105
   5   1.0000     -10.206203      -277.7249
   6   1.0000     -10.206070      -277.7213
   7   1.0000     -10.205869      -277.7158
   8   1.0000     -10.205182      -277.6971
   9   1.0000     -10.204991      -277.6919
  10   1.0000     -10.204460      -277.6775
  11   1.0000     -10.203192      -277.6430
  12   1.0000     -10.201505      -277.5971
  13   1.0000     -10.201097      -277.5860
  14   1.0000     -10.197828      -277.4970
  15   1.0000     -10.197479      -277.4875
  16   1.0000     -10.196211      -277.4530
  17   1.0000     -10.188506      -277.2433
  18   1.0000     -10.187126      -277.2058
  19   1.0000     -10.183377      -277.1038
  20   1.0000     -10.181442      -277.0511
  21   1.0000     -10.181206      -277.0447
  22   1.0000     -10.172740      -276.8143
  23   1.0000     -10.171028      -276.7677
  24   1.0000      -0.871895       -23.7255
  25   1.0000      -0.861364       -23.4389
  26   1.0000      -0.817835       -22.2544
  27   1.0000      -0.796833       -21.6829
  28   1.0000      -0.793859       -21.6020
  29   1.0000      -0.777504       -21.1570
  30   1.0000      -0.765892       -20.8410
  31   1.0000      -0.750990       -20.4355
  32   1.0000      -0.744096       -20.2479
  33   1.0000      -0.728608       -19.8264
  34   1.0000      -0.714218       -19.4349
  35   1.0000      -0.696537       -18.9537
  36   1.0000      -0.655989       -17.8504
  37   1.0000      -0.643606       -17.5134
  38   1.0000      -0.620519       -16.8852
  39   1.0000      -0.611963       -16.6523
  40   1.0000      -0.610380       -16.6093
  41   1.0000      -0.593164       -16.1408
  42   1.0000      -0.580891       -15.8069
  43   1.0000      -0.562924       -15.3179
  44   1.0000      -0.542636       -14.7659
  45   1.0000      -0.531807       -14.4712
  46   1.0000      -0.507177       -13.8010
  47   1.0000      -0.491329       -13.3698
  48   1.0000      -0.481789       -13.1101
  49   1.0000      -0.476120       -12.9559
  50   1.0000      -0.471362       -12.8264
  51   1.0000      -0.463149       -12.6029
  52   1.0000      -0.456113       -12.4115
  53   1.0000      -0.438850       -11.9417
  54   1.0000      -0.432021       -11.7559
  55   1.0000      -0.428546       -11.6613
  56   1.0000      -0.426497       -11.6056
  57   1.0000      -0.425123       -11.5682
  58   1.0000      -0.422856       -11.5065
  59   1.0000      -0.411722       -11.2035
  60   1.0000      -0.399145       -10.8613
  61   1.0000      -0.396728       -10.7955
  62   1.0000      -0.383332       -10.4310
  63   1.0000      -0.378498       -10.2995
  64   1.0000      -0.376831       -10.2541
  65   1.0000      -0.364623        -9.9219
  66   1.0000      -0.363351        -9.8873
  67   1.0000      -0.356346        -9.6967
  68   1.0000      -0.355975        -9.6866
  69   1.0000      -0.353152        -9.6098
  70   1.0000      -0.338155        -9.2017
  71   1.0000      -0.333120        -9.0647
  72   1.0000      -0.332031        -9.0350
  73   1.0000      -0.331995        -9.0340
  74   1.0000      -0.327157        -8.9024
  75   1.0000      -0.323352        -8.7989
  76   1.0000      -0.322107        -8.7650
  77   1.0000      -0.297305        -8.0901
  78   1.0000      -0.275428        -7.4948
  79   1.0000      -0.274752        -7.4764
  80   1.0000      -0.269277        -7.3274
  81   1.0000      -0.258848        -7.0436
  82   1.0000      -0.256142        -6.9700
  83   1.0000      -0.215390        -5.8611
  84   1.0000      -0.174045        -4.7360
  85   0.0000      -0.062612        -1.7038
  86   0.0000      -0.015813        -0.4303
  87   0.0000      -0.013286        -0.3615
  88   0.0000       0.013413         0.3650
  89   0.0000       0.014446         0.3931

                 SPIN DOWN ORBITALS
  NO   OCC          E(Eh)            E(eV)
   0   1.0000     -10.228957      -278.3441
   1   1.0000     -10.224292      -278.2171
   2   1.0000     -10.220906      -278.1250
   3   1.0000     -10.211797      -277.8771
   4   1.0000     -10.208500      -277.7874
   5   1.0000     -10.206341      -277.7287
   6   1.0000     -10.206205      -277.7250
   7   1.0000     -10.206015      -277.7198
   8   1.0000     -10.205288      -277.7000
   9   1.0000     -10.205125      -277.6956
  10   1.0000     -10.204960      -277.6911
  11   1.0000     -10.203483      -277.6509
  12   1.0000     -10.200978      -277.5827
  13   1.0000     -10.199076      -277.5310
  14   1.0000     -10.198384      -277.5121
  15   1.0000     -10.194889      -277.4170
  16   1.0000     -10.189164      -277.2612
  17   1.0000     -10.187866      -277.2259
  18   1.0000     -10.187323      -277.2111
  19   1.0000     -10.183341      -277.1028
  20   1.0000     -10.181442      -277.0511
  21   1.0000     -10.181204      -277.0447
  22   1.0000     -10.172750      -276.8146
  23   1.0000     -10.171029      -276.7678
  24   1.0000      -0.868538       -23.6341
  25   1.0000      -0.861437       -23.4409
  26   1.0000      -0.812987       -22.1225
  27   1.0000      -0.795299       -21.6412
  28   1.0000      -0.791542       -21.5390
  29   1.0000      -0.777141       -21.1471
  30   1.0000      -0.763848       -20.7853
  31   1.0000      -0.751138       -20.4395
  32   1.0000      -0.743044       -20.2193
  33   1.0000      -0.724926       -19.7262
  34   1.0000      -0.712518       -19.3886
  35   1.0000      -0.694271       -18.8921
  36   1.0000      -0.652909       -17.7666
  37   1.0000      -0.641898       -17.4669
  38   1.0000      -0.617588       -16.8054
  39   1.0000      -0.610484       -16.6121
  40   1.0000      -0.609099       -16.5744
  41   1.0000      -0.592265       -16.1164
  42   1.0000      -0.579266       -15.7626
  43   1.0000      -0.559852       -15.2344
  44   1.0000      -0.541929       -14.7466
  45   1.0000      -0.530172       -14.4267
  46   1.0000      -0.504231       -13.7208
  47   1.0000      -0.489735       -13.3264
  48   1.0000      -0.481283       -13.0964
  49   1.0000      -0.474757       -12.9188
  50   1.0000      -0.470516       -12.8034
  51   1.0000      -0.459764       -12.5108
  52   1.0000      -0.456181       -12.4133
  53   1.0000      -0.438622       -11.9355
  54   1.0000      -0.430951       -11.7268
  55   1.0000      -0.426532       -11.6065
  56   1.0000      -0.426214       -11.5979
  57   1.0000      -0.423942       -11.5360
  58   1.0000      -0.420389       -11.4394
  59   1.0000      -0.411291       -11.1918
  60   1.0000      -0.395555       -10.7636
  61   1.0000      -0.391716       -10.6591
  62   1.0000      -0.382322       -10.4035
  63   1.0000      -0.376143       -10.2354
  64   1.0000      -0.374094       -10.1796
  65   1.0000      -0.363444        -9.8898
  66   1.0000      -0.363403        -9.8887
  67   1.0000      -0.355487        -9.6733
  68   1.0000      -0.353169        -9.6102
  69   1.0000      -0.352899        -9.6029
  70   1.0000      -0.335786        -9.1372
  71   1.0000      -0.331582        -9.0228
  72   1.0000      -0.331490        -9.0203
  73   1.0000      -0.329968        -8.9789
  74   1.0000      -0.326752        -8.8914
  75   1.0000      -0.322897        -8.7865
  76   1.0000      -0.321408        -8.7460
  77   1.0000      -0.294199        -8.0056
  78   1.0000      -0.274132        -7.4595
  79   1.0000      -0.269101        -7.3226
  80   1.0000      -0.261491        -7.1155
  81   1.0000      -0.259263        -7.0549
  82   1.0000      -0.252748        -6.8776
  83   1.0000      -0.208204        -5.6655
  84   0.0000      -0.084175        -2.2905
  85   0.0000      -0.054944        -1.4951
  86   0.0000      -0.016164        -0.4398
  87   0.0000      -0.011719        -0.3189
  88   0.0000       0.014608         0.3975

MULLIKEN ATOMIC CHARGES AND SPIN POPULATIONS
--------------------------------------------
   0 C :   -0.542285    0.101606
   1 C :   -0.014302   -0.054423
   2 C :   -0.387390    0.028059
   3 C :    0.343444    0.204264
   4 C :    0.445920   -0.135924
   5 C :   -0.458755    0.212884
   6 C :    0.547100   -0.091234
   7 C :    0.239432    0.223564
   8 C :   -0.380913   -0.110886
   9 H :    0.130960   -0.011475
  10 H :    0.134530    0.005156
  11 C :   -0.298595    0.703678
  12 H :    0.135058   -0.036538
  13 C :   -0.272325   -0.045474
  14 H :    0.152771    0.029720
  15 H :    0.152617    0.029608
  16 C :   -0.290902    0.002241
  17 H :    0.156409   -0.000150
  18 H :    0.156341   -0.000147
  19 C :   -0.510241   -0.000797
  20 H :    0.159261    0.000167
  21 H :    0.159257    0.000167
  22 C :   -0.356915   -0.016643
  23 H :    0.152882    0.010321
  24 H :    0.152847    0.010327
  25 C :   -0.272571    0.000900
  26 H :    0.142476    0.000175
  27 H :    0.142488    0.000175
  28 C :   -0.263472   -0.000239
  29 H :    0.144460    0.000043
  30 H :    0.144464    0.000043
  31 C :   -0.511411   -0.000085
  32 H :    0.160308    0.000023
  33 H :    0.160307    0.000023
  34 C :   -0.299215   -0.043328
  35 H :    0.184681   -0.004092
  36 H :    0.146653   -0.000168
  37 H :    0.144130   -0.000005
  38 C :    0.586698    0.009031
  39 C :   -0.281564   -0.010591
  40 C :   -0.098449    0.005495
  41 C :   -0.122643   -0.011549
  42 C :   -0.102731    0.005489
  43 C :   -0.272816   -0.010631
  44 H :    0.107725    0.000642
  45 H :    0.106819   -0.000266
  46 H :    0.120490    0.000554
  47 H :    0.120136    0.000554
  48 H :    0.106830   -0.000265
Sum of atomic charges         :    0.0000000

LOEWDIN ATOMIC CHARGES AND SPIN POPULATIONS
-------------------------------------------
   0 C :   -0.064567    0.081084
   1 C :   -0.032410   -0.023486
   2 C :   -0.028027    0.016702
   3 C :   -0.059518    0.163836
   4 C :   -0.066146   -0.071138
   5 C :    0.008823    0.169601
   6 C :   -0.066522   -0.058856
   7 C :   -0.040167    0.176395
   8 C :   -0.008584   -0.065478
   9 H :    0.059314    0.001220
  10 H :    0.061616   -0.000592
  11 C :   -0.006747    0.582378
  12 H :    0.058680    0.004574
  13 C :   -0.082821    0.003534
  14 H :    0.054168    0.024368
  15 H :    0.054112    0.024268
  16 C :   -0.087419    0.000948
  17 H :    0.042468   -0.000047
  18 H :    0.042453   -0.000047
  19 C :   -0.078127   -0.000166
  20 H :    0.034197    0.000202
  21 H :    0.034198    0.000202
  22 C :   -0.045147    0.001617
  23 H :    0.059306    0.008198
  24 H :    0.059310    0.008200
  25 C :   -0.079540    0.000197
  26 H :    0.044801    0.000008
  27 H :    0.044805    0.000008
  28 C :   -0.090646   -0.000006
  29 H :    0.040783    0.000059
  30 H :    0.040783    0.000059
  31 C :   -0.078683   -0.000034
  32 H :    0.034227    0.000015
  33 H :    0.034227    0.000015
  34 C :   -0.034251   -0.033784
  35 H :    0.044925    0.000464
  36 H :    0.032388   -0.000084
  37 H :    0.031567   -0.000006
  38 C :   -0.071994    0.004869
  39 C :   -0.015120   -0.008488
  40 C :   -0.042393    0.003385
  41 C :   -0.042191   -0.009021
  42 C :   -0.042718    0.003382
  43 C :   -0.015561   -0.008478
  44 H :    0.049256   -0.000065
  45 H :    0.050385    0.000025
  46 H :    0.056161   -0.000031
  47 H :    0.055882   -0.000032
  48 H :    0.050459    0.000025

  Mayer bond orders larger than 0.100000
B(  0-C ,  1-C ) :   2.6934 B(  0-C , 35-H ) :   0.9860 B(  1-C ,  3-C ) :   0.9249
B(  2-C ,  6-C ) :   0.7870 B(  2-C , 34-C ) :   2.5200 B(  3-C ,  4-C ) :   1.2449
B(  3-C ,  8-C ) :   1.4261 B(  4-C ,  5-C ) :   1.2329 B(  4-C ,  6-C ) :   0.1130
B(  4-C , 11-C ) :   1.2666 B(  5-C ,  6-C ) :   1.4946 B(  5-C ,  9-H ) :   0.9693
B(  6-C ,  7-C ) :   1.3268 B(  6-C ,  8-C ) :   0.1221 B(  7-C ,  8-C ) :   1.4175
B(  7-C , 22-C ) :   0.9660 B(  8-C , 10-H ) :   0.9705 B( 11-C , 12-H ) :   0.9899
B( 11-C , 13-C ) :   1.0030 B( 13-C , 14-H ) :   0.9553 B( 13-C , 15-H ) :   0.9552
B( 13-C , 16-C ) :   0.9805 B( 16-C , 17-H ) :   0.9723 B( 16-C , 18-H ) :   0.9722
B( 16-C , 19-C ) :   0.9612 B( 19-C , 20-H ) :   0.9728 B( 19-C , 21-H ) :   0.9729
B( 19-C , 36-H ) :   0.9674 B( 22-C , 23-H ) :   0.9550 B( 22-C , 24-H ) :   0.9551
B( 22-C , 25-C ) :   1.0233 B( 25-C , 26-H ) :   0.9615 B( 25-C , 27-H ) :   0.9616
B( 25-C , 28-C ) :   0.9863 B( 28-C , 29-H ) :   0.9719 B( 28-C , 30-H ) :   0.9719
B( 28-C , 31-C ) :   0.9546 B( 31-C , 32-H ) :   0.9730 B( 31-C , 33-H ) :   0.9730
B( 31-C , 37-H ) :   0.9673 B( 34-C , 38-C ) :   1.0059 B( 38-C , 39-C ) :   1.3900
B( 38-C , 43-C ) :   1.3847 B( 39-C , 40-C ) :   1.4768 B( 39-C , 46-H ) :   0.9818
B( 40-C , 41-C ) :   1.4527 B( 40-C , 48-H ) :   0.9756 B( 41-C , 42-C ) :   1.4556
B( 41-C , 44-H ) :   0.9655 B( 42-C , 43-C ) :   1.4765 B( 42-C , 45-H ) :   0.9765
B( 43-C , 47-H ) :   0.9795

FINAL SINGLE POINT ENERGY      -928.972900909268

DIPOLE MOMENT
-------------
                                X             Y             Z
Electronic contribution:      9.61150      -2.45563      -0.01183
Nuclear contribution   :     -9.17689       2.39246       0.01285
                        -----------------------------------------
Total Dipole Moment    :      0.43462      -0.06317       0.00102
                        -----------------------------------------
Magnitude (a.u.)       :      0.43919
Magnitude (Debye)      :      1.11632

Rotational constants in cm-1:     0.006624     0.004171     0.002568
Rotational constants in MHz :   198.575673   125.029999    76.977840

CHEMICAL SHIELDING SUMMARY (ppm)  --  Orbital contribution
----------------------------------------------------------

  Nucleus  Element    Isotropic     Anisotropy
  -------  -------  ------------   ------------
      9       H           95.334         18.237
     10       H           35.139         36.302
     12       H            1.802         10.451
     14       H           93.598         14.635
     15       H           93.884         14.495
     17       H            2.789         30.790
     18       H            2.504         30.797
     20       H           39.812         12.860
     21       H           39.567         12.961
     23       H           96.357         31.626
     24       H           96.335         31.631
     26       H           55.926         29.902
     27       H           55.953         29.890
     29       H           54.968         19.783
     30       H           54.939         19.787
     32       H            9.331         21.685
     33       H            9.306         21.693
     35       H          -97.029        -99.190
     36       H          -80.503        -32.177
     37       H          -47.507         26.138
     44       H         -127.730       -181.327
     45       H          -56.453          0.213
     46       H           89.194         19.458
     47       H           88.069         21.880
     48       H          -54.952          1.145

                             ****ORCA TERMINATED NORMALLY****
TOTAL RUN TIME: 0 days 1 hours 29 minutes 20 seconds 136 msec
