                         Program Version 5.0.4 -  RELEASE  -
|  1> ! B3LYP EPR-II AUTOAUX
|  2> %pal nprocs 16 end
|  3> *XYZFile 0 2 opt_EPRII.xyz
|  4> %EPRNMR
|  5>         GTENSOR   TRUE
|  6>         NUCLEI    = ALL H {SHIFT, AISO, ADIP, AORB}
|  7>         ORI       GIAO
|  8> END
|  9>
| 10>                          ****END OF INPUT****

CARTESIAN COORDINATES (ANGSTROEM)
---------------------------------
  C     -4.061290    0.097243   -0.003202
  C     -2.840340    0.052513   -0.004175
  C      2.848212   -0.004613   -0.002808
  C     -1.410878    0.005855   -0.003739
  C     -0.709102   -1.257882   -0.003309
  C      0.715759   -1.196526   -0.003042
  C      1.416609    0.016907   -0.003117
  C      0.709302    1.264187   -0.003433
  C     -0.690083    1.216305   -0.003817
  H      1.285575   -2.119016   -0.002768
  H     -1.258721    2.139144   -0.004153
  C     -1.403807   -2.492986   -0.003062
  H     -2.489925   -2.456482   -0.003312
  C     -0.746616   -3.847576   -0.002681
  H     -0.087180   -3.946178   -0.879822
  H     -0.083959   -3.944191    0.872218
  C     -1.754451   -5.012136    0.000519
  H     -2.403490   -4.922182    0.880879
  H     -2.406906   -4.924132   -0.877516
  C     -1.073601   -6.390947    0.000713
  H     -0.437554   -6.516405    0.884356
  H     -0.440921   -6.518309   -0.885074
  C      1.486840    2.569297   -0.003405
  H      2.155628    2.570543    0.868552
  H      2.155790    2.570502   -0.875241
  C      0.658240    3.863515   -0.003491
  H      0.002713    3.887888   -0.884221
  H      0.002412    3.887792    0.877019
  C      1.540623    5.124977   -0.003274
  H      2.198559    5.106045    0.875831
  H      2.198796    5.106188   -0.882204
  C      0.723584    6.428707   -0.003274
  H      0.079270    6.489196    0.881080
  H      0.079479    6.489332   -0.887770
  C      4.073248   -0.023786   -0.003632
  H     -5.126248    0.140881   -0.001501
  H     -1.812409   -7.198818    0.002987
  H      1.375928    7.308115   -0.003129
  C      5.505221   -0.055993   -0.003216
  C      6.195829   -1.292467   -0.003138
  C      7.595063   -1.320535   -0.002633
  C      8.329430   -0.122421   -0.002224
  C      7.652183    1.108936   -0.002329
  C      6.253125    1.146554   -0.002836
  H      9.415819   -0.148062   -0.001830
  H      8.215069    2.038709   -0.002016
  H      5.625878   -2.216856   -0.003456
  H      5.727831    2.096999   -0.002920
  H      8.113815   -2.275648   -0.002559

 Total Charge           Charge          ....    0
 Multiplicity           Mult            ....    2
 Number of Electrons    NEL             ....  169
 Basis Dimension        Dim             ....  583

ORBITAL ENERGIES
----------------
                 SPIN UP ORBITALS
  NO   OCC          E(Eh)            E(eV)
   0   1.0000     -10.229116      -278.3484
   1   1.0000     -10.224362      -278.2190
   2   1.0000     -10.222700      -278.1738
   3   1.0000     -10.211960      -277.8816
   4   1.0000     -10.209360      -277.8108
   5   1.0000     -10.206196      -277.7247
   6   1.0000     -10.206066      -277.7212
   7   1.0000     -10.205866      -277.7157
   8   1.0000     -10.205178      -277.6970
   9   1.0000     -10.204989      -277.6919
  10   1.0000     -10.204480      -277.6780
  11   1.0000     -10.203194      -277.6430
  12   1.0000     -10.201505      -277.5971
  13   1.0000     -10.201100      -277.5860
  14   1.0000     -10.197825      -277.4969
  15   1.0000     -10.197484      -277.4876
  16   1.0000     -10.196189      -277.4524
  17   1.0000     -10.188503      -277.2433
  18   1.0000     -10.187131      -277.2059
  19   1.0000     -10.183375      -277.1037
  20   1.0000     -10.181442      -277.0511
  21   1.0000     -10.181206      -277.0447
  22   1.0000     -10.172743      -276.8144
  23   1.0000     -10.171031      -276.7678
  24   1.0000      -0.871903       -23.7257
  25   1.0000      -0.861361       -23.4388
  26   1.0000      -0.817839       -22.2545
  27   1.0000      -0.796837       -21.6830
  28   1.0000      -0.793860       -21.6020
  29   1.0000      -0.777505       -21.1570
  30   1.0000      -0.765895       -20.8411
  31   1.0000      -0.750987       -20.4354
  32   1.0000      -0.744098       -20.2479
  33   1.0000      -0.728610       -19.8265
  34   1.0000      -0.714220       -19.4349
  35   1.0000      -0.696539       -18.9538
  36   1.0000      -0.655992       -17.8504
  37   1.0000      -0.643610       -17.5135
  38   1.0000      -0.620521       -16.8852
  39   1.0000      -0.611964       -16.6524
  40   1.0000      -0.610379       -16.6092
  41   1.0000      -0.593166       -16.1409
  42   1.0000      -0.580892       -15.8069
  43   1.0000      -0.562927       -15.3180
  44   1.0000      -0.542635       -14.7659
  45   1.0000      -0.531805       -14.4711
  46   1.0000      -0.507180       -13.8011
  47   1.0000      -0.491331       -13.3698
  48   1.0000      -0.481790       -13.1102
  49   1.0000      -0.476126       -12.9560
  50   1.0000      -0.471363       -12.8265
  51   1.0000      -0.463149       -12.6029
  52   1.0000      -0.456111       -12.4114
  53   1.0000      -0.438850       -11.9417
  54   1.0000      -0.432024       -11.7560
  55   1.0000      -0.428549       -11.6614
  56   1.0000      -0.426495       -11.6055
  57   1.0000      -0.425124       -11.5682
  58   1.0000      -0.422859       -11.5066
  59   1.0000      -0.411724       -11.2036
  60   1.0000      -0.399147       -10.8613
  61   1.0000      -0.396731       -10.7956
  62   1.0000      -0.383334       -10.4310
  63   1.0000      -0.378501       -10.2995
  64   1.0000      -0.376831       -10.2541
  65   1.0000      -0.364625        -9.9220
  66   1.0000      -0.363349        -9.8872
  67   1.0000      -0.356349        -9.6968
  68   1.0000      -0.355978        -9.6867
  69   1.0000      -0.353150        -9.6097
  70   1.0000      -0.338156        -9.2017
  71   1.0000      -0.333121        -9.0647
  72   1.0000      -0.332034        -9.0351
  73   1.0000      -0.331994        -9.0340
  74   1.0000      -0.327158        -8.9024
  75   1.0000      -0.323353        -8.7989
  76   1.0000      -0.322110        -8.7650
  77   1.0000      -0.297306        -8.0901
  78   1.0000      -0.275431        -7.4949
  79   1.0000      -0.274751        -7.4764
  80   1.0000      -0.269278        -7.3274
  81   1.0000      -0.258845        -7.0435
  82   1.0000      -0.256143        -6.9700
  83   1.0000      -0.215391        -5.8611
  84   1.0000      -0.174047        -4.7361
  85   0.0000      -0.062615        -1.7038
  86   0.0000      -0.015811        -0.4302
  87   0.0000      -0.013288        -0.3616
  88   0.0000       0.013408         0.3649
  89   0.0000       0.014445         0.3931

                 SPIN DOWN ORBITALS
  NO   OCC          E(Eh)            E(eV)
   0   1.0000     -10.228957      -278.3441
   1   1.0000     -10.224304      -278.2175
   2   1.0000     -10.220930      -278.1256
   3   1.0000     -10.211808      -277.8774
   4   1.0000     -10.208507      -277.7876
   5   1.0000     -10.206333      -277.7284
   6   1.0000     -10.206201      -277.7248
   7   1.0000     -10.206012      -277.7197
   8   1.0000     -10.205308      -277.7005
   9   1.0000     -10.205122      -277.6955
  10   1.0000     -10.204958      -277.6910
  11   1.0000     -10.203482      -277.6509
  12   1.0000     -10.200984      -277.5829
  13   1.0000     -10.199080      -277.5311
  14   1.0000     -10.198384      -277.5121
  15   1.0000     -10.194867      -277.4164
  16   1.0000     -10.189160      -277.2611
  17   1.0000     -10.187863      -277.2258
  18   1.0000     -10.187328      -277.2113
  19   1.0000     -10.183339      -277.1027
  20   1.0000     -10.181442      -277.0511
  21   1.0000     -10.181204      -277.0446
  22   1.0000     -10.172752      -276.8147
  23   1.0000     -10.171033      -276.7679
  24   1.0000      -0.868546       -23.6343
  25   1.0000      -0.861435       -23.4408
  26   1.0000      -0.812992       -22.1227
  27   1.0000      -0.795302       -21.6413
  28   1.0000      -0.791543       -21.5390
  29   1.0000      -0.777141       -21.1471
  30   1.0000      -0.763850       -20.7854
  31   1.0000      -0.751136       -20.4394
  32   1.0000      -0.743046       -20.2193
  33   1.0000      -0.724928       -19.7263
  34   1.0000      -0.712519       -19.3886
  35   1.0000      -0.694272       -18.8921
  36   1.0000      -0.652912       -17.7667
  37   1.0000      -0.641902       -17.4670
  38   1.0000      -0.617589       -16.8055
  39   1.0000      -0.610482       -16.6121
  40   1.0000      -0.609101       -16.5745
  41   1.0000      -0.592267       -16.1164
  42   1.0000      -0.579267       -15.7627
  43   1.0000      -0.559855       -15.2344
  44   1.0000      -0.541928       -14.7466
  45   1.0000      -0.530169       -14.4266
  46   1.0000      -0.504234       -13.7209
  47   1.0000      -0.489736       -13.3264
  48   1.0000      -0.481285       -13.0964
  49   1.0000      -0.474763       -12.9189
  50   1.0000      -0.470517       -12.8034
  51   1.0000      -0.459763       -12.5108
  52   1.0000      -0.456178       -12.4132
  53   1.0000      -0.438621       -11.9355
  54   1.0000      -0.430955       -11.7269
  55   1.0000      -0.426530       -11.6065
  56   1.0000      -0.426216       -11.5979
  57   1.0000      -0.423943       -11.5361
  58   1.0000      -0.420392       -11.4394
  59   1.0000      -0.411293       -11.1919
  60   1.0000      -0.395558       -10.7637
  61   1.0000      -0.391718       -10.6592
  62   1.0000      -0.382321       -10.4035
  63   1.0000      -0.376146       -10.2354
  64   1.0000      -0.374096       -10.1797
  65   1.0000      -0.363446        -9.8899
  66   1.0000      -0.363401        -9.8887
  67   1.0000      -0.355489        -9.6734
  68   1.0000      -0.353167        -9.6102
  69   1.0000      -0.352903        -9.6030
  70   1.0000      -0.335787        -9.1372
  71   1.0000      -0.331584        -9.0228
  72   1.0000      -0.331490        -9.0203
  73   1.0000      -0.329970        -8.9789
  74   1.0000      -0.326753        -8.8914
  75   1.0000      -0.322898        -8.7865
  76   1.0000      -0.321410        -8.7460
  77   1.0000      -0.294200        -8.0056
  78   1.0000      -0.274132        -7.4595
  79   1.0000      -0.269102        -7.3227
  80   1.0000      -0.261494        -7.1156
  81   1.0000      -0.259260        -7.0548
  82   1.0000      -0.252750        -6.8777
  83   1.0000      -0.208205        -5.6655
  84   0.0000      -0.084179        -2.2906
  85   0.0000      -0.054945        -1.4951
  86   0.0000      -0.016162        -0.4398
  87   0.0000      -0.011721        -0.3189
  88   0.0000       0.014607         0.3975

MULLIKEN ATOMIC CHARGES AND SPIN POPULATIONS
--------------------------------------------
   0 C :   -0.542135    0.101571
   1 C :   -0.014416   -0.054393
   2 C :   -0.387448    0.028033
   3 C :    0.343408    0.204237
   4 C :    0.445875   -0.135907
   5 C :   -0.458712    0.212857
   6 C :    0.547105   -0.091218
   7 C :    0.239420    0.223543
   8 C :   -0.380922   -0.110859
   9 H :    0.130964   -0.011472
  10 H :    0.134534    0.005154
  11 C :   -0.298577    0.703683
  12 H :    0.135058   -0.036539
  13 C :   -0.272321   -0.045475
  14 H :    0.152770    0.029719
  15 H :    0.152616    0.029607
  16 C :   -0.290897    0.002241
  17 H :    0.156409   -0.000150
  18 H :    0.156340   -0.000147
  19 C :   -0.510247   -0.000797
  20 H :    0.159262    0.000167
  21 H :    0.159258    0.000167
  22 C :   -0.356910   -0.016642
  23 H :    0.152885    0.010320
  24 H :    0.152850    0.010326
  25 C :   -0.272566    0.000900
  26 H :    0.142476    0.000175
  27 H :    0.142488    0.000175
  28 C :   -0.263470   -0.000238
  29 H :    0.144460    0.000043
  30 H :    0.144464    0.000043
  31 C :   -0.511417   -0.000085
  32 H :    0.160309    0.000023
  33 H :    0.160308    0.000023
  34 C :   -0.299184   -0.043294
  35 H :    0.184676   -0.004089
  36 H :    0.146654   -0.000168
  37 H :    0.144132   -0.000005
  38 C :    0.586678    0.009005
  39 C :   -0.281547   -0.010562
  40 C :   -0.098456    0.005470
  41 C :   -0.122633   -0.011519
  42 C :   -0.102736    0.005464
  43 C :   -0.272792   -0.010603
  44 H :    0.107723    0.000640
  45 H :    0.106816   -0.000264
  46 H :    0.120487    0.000551
  47 H :    0.120132    0.000551
  48 H :    0.106828   -0.000263
Sum of atomic charges         :   -0.0000000

LOEWDIN ATOMIC CHARGES AND SPIN POPULATIONS
-------------------------------------------
   0 C :   -0.064463    0.081057
   1 C :   -0.032494   -0.023467
   2 C :   -0.028054    0.016667
   3 C :   -0.059560    0.163819
   4 C :   -0.066161   -0.071129
   5 C :    0.008836    0.169582
   6 C :   -0.066539   -0.058839
   7 C :   -0.040172    0.176379
   8 C :   -0.008580   -0.065460
   9 H :    0.059316    0.001221
  10 H :    0.061619   -0.000593
  11 C :   -0.006731    0.582384
  12 H :    0.058680    0.004574
  13 C :   -0.082816    0.003534
  14 H :    0.054168    0.024368
  15 H :    0.054112    0.024268
  16 C :   -0.087416    0.000948
  17 H :    0.042467   -0.000047
  18 H :    0.042452   -0.000047
  19 C :   -0.078131   -0.000166
  20 H :    0.034198    0.000202
  21 H :    0.034199    0.000202
  22 C :   -0.045149    0.001618
  23 H :    0.059307    0.008197
  24 H :    0.059311    0.008199
  25 C :   -0.079537    0.000197
  26 H :    0.044801    0.000008
  27 H :    0.044805    0.000008
  28 C :   -0.090644   -0.000006
  29 H :    0.040783    0.000059
  30 H :    0.040783    0.000059
  31 C :   -0.078686   -0.000034
  32 H :    0.034228    0.000015
  33 H :    0.034228    0.000015
  34 C :   -0.034224   -0.033749
  35 H :    0.044927    0.000464
  36 H :    0.032388   -0.000084
  37 H :    0.031568   -0.000006
  38 C :   -0.071996    0.004852
  39 C :   -0.015111   -0.008467
  40 C :   -0.042396    0.003368
  41 C :   -0.042189   -0.009000
  42 C :   -0.042718    0.003365
  43 C :   -0.015547   -0.008457
  44 H :    0.049255   -0.000065
  45 H :    0.050384    0.000026
  46 H :    0.056159   -0.000032
  47 H :    0.055880   -0.000032
  48 H :    0.050458    0.000026

  Mayer bond orders larger than 0.100000
B(  0-C ,  1-C ) :   2.6934 B(  0-C , 35-H ) :   0.9860 B(  1-C ,  3-C ) :   0.9249
B(  2-C ,  6-C ) :   0.7870 B(  2-C , 34-C ) :   2.5199 B(  3-C ,  4-C ) :   1.2449
B(  3-C ,  8-C ) :   1.4261 B(  4-C ,  5-C ) :   1.2329 B(  4-C ,  6-C ) :   0.1130
B(  4-C , 11-C ) :   1.2666 B(  5-C ,  6-C ) :   1.4946 B(  5-C ,  9-H ) :   0.9693
B(  6-C ,  7-C ) :   1.3268 B(  6-C ,  8-C ) :   0.1221 B(  7-C ,  8-C ) :   1.4175
B(  7-C , 22-C ) :   0.9660 B(  8-C , 10-H ) :   0.9705 B( 11-C , 12-H ) :   0.9899
B( 11-C , 13-C ) :   1.0030 B( 13-C , 14-H ) :   0.9553 B( 13-C , 15-H ) :   0.9552
B( 13-C , 16-C ) :   0.9805 B( 16-C , 17-H ) :   0.9723 B( 16-C , 18-H ) :   0.9722
B( 16-C , 19-C ) :   0.9612 B( 19-C , 20-H ) :   0.9728 B( 19-C , 21-H ) :   0.9729
B( 19-C , 36-H ) :   0.9674 B( 22-C , 23-H ) :   0.9550 B( 22-C , 24-H ) :   0.9551
B( 22-C , 25-C ) :   1.0232 B( 25-C , 26-H ) :   0.9615 B( 25-C , 27-H ) :   0.9616
B( 25-C , 28-C ) :   0.9863 B( 28-C , 29-H ) :   0.9719 B( 28-C , 30-H ) :   0.9719
B( 28-C , 31-C ) :   0.9546 B( 31-C , 32-H ) :   0.9730 B( 31-C , 33-H ) :   0.9730
B( 31-C , 37-H ) :   0.9673 B( 34-C , 38-C ) :   1.0059 B( 38-C , 39-C ) :   1.3900
B( 38-C , 43-C ) :   1.3847 B( 39-C , 40-C ) :   1.4769 B( 39-C , 46-H ) :   0.9818
B( 40-C , 41-C ) :   1.4527 B( 40-C , 48-H ) :   0.9756 B( 41-C , 42-C ) :   1.4556
B( 41-C , 44-H ) :   0.9655 B( 42-C , 43-C ) :   1.4765 B( 42-C , 45-H ) :   0.9766
B( 43-C , 47-H ) :   0.9795

FINAL SINGLE POINT ENERGY      -928.972900893712

DIPOLE MOMENT
-------------
                                X             Y             Z
Electronic contribution:      9.61137      -2.45567      -0.01183
Nuclear contribution   :     -9.17689       2.39246       0.01285
                        -----------------------------------------
Total Dipole Moment    :      0.43448      -0.06321       0.00102
                        -----------------------------------------
Magnitude (a.u.)       :      0.43906
Magnitude (Debye)      :      1.11600

Rotational constants in cm-1:     0.006624     0.004171     0.002568
Rotational constants in MHz :   198.575673   125.029999    76.977840

CHEMICAL SHIELDING SUMMARY (ppm)  --  Orbital contribution
----------------------------------------------------------

  Nucleus  Element    Isotropic     Anisotropy
  -------  -------  ------------   ------------
      9       H           24.462         12.187
     10       H           24.508         12.775
     12       H           25.457         11.984
     14       H           29.375          4.487
     15       H           29.374          4.496
     17       H           30.114          6.854
     18       H           30.113          6.862
     20       H           30.980          7.997
     21       H           30.979          7.996
     23       H           28.971          6.043
     24       H           28.971          6.043
     26       H           30.199          4.952
     27       H           30.200          4.951
     29       H           30.302          6.343
     30       H           30.302          6.343
     32       H           30.938          8.156
     33       H           30.938          8.157
     35       H           28.411         10.179
     36       H           30.706         10.280
     37       H           30.703         10.451
     44       H           24.302          4.686
     45       H           24.307          5.624
     46       H           24.061          8.026
     47       H           24.041          8.111
     48       H           24.293          5.299

                             ****ORCA TERMINATED NORMALLY****
TOTAL RUN TIME: 0 days 1 hours 29 minutes 46 seconds 684 msec
