                         Program Version 5.0.4 -  RELEASE  -
|  1> ! B3LYP cc-pVDZ OPT
|  2> %pal nprocs 16 end
|  3> *XYZFile 0 2 model.xyz
|  4>
|  5>                          ****END OF INPUT****
 Total Charge           Charge          ....    0
 Multiplicity           Mult            ....    2
 Number of Electrons    NEL             ....  169
FINAL SINGLE POINT ENERGY      -928.901881952725
                    ***********************HURRAY********************

CARTESIAN COORDINATES (ANGSTROEM)
---------------------------------
  C     -4.052268    0.115614   -0.001692
  C     -2.836565    0.052160   -0.003421
  C      2.842829   -0.004216   -0.002352
  C     -1.410014    0.002656   -0.003149
  C     -0.708139   -1.258090   -0.002726
  C      0.713185   -1.192512   -0.002392
  C      1.414143    0.016922   -0.002570
  C      0.706182    1.260759   -0.003012
  C     -0.689438    1.209567   -0.003370
  H      1.288191   -2.118709   -0.002058
  H     -1.263059    2.136269   -0.003793
  C     -1.396801   -2.492011   -0.002645
  H     -2.489358   -2.454708   -0.003064
  C     -0.741126   -3.840380   -0.002172
  H     -0.069922   -3.936290   -0.880793
  H     -0.068807   -3.935156    0.875698
  C     -1.739120   -5.005603   -0.000787
  H     -2.397379   -4.914277    0.882428
  H     -2.398569   -4.915385   -0.883231
  C     -1.061646   -6.377131   -0.000385
  H     -0.420496   -6.507557    0.888639
  H     -0.421640   -6.508641   -0.890074
  C      1.479774    2.562726   -0.003141
  H      2.157489    2.561725    0.871211
  H      2.158029    2.561237   -0.877070
  C      0.660782    3.856198   -0.003729
  H     -0.002282    3.880554   -0.888104
  H     -0.002671    3.881100    0.880341
  C      1.541048    5.111788   -0.003930
  H      2.207161    5.089300    0.878622
  H      2.207254    5.088941   -0.886402
  C      0.734674    6.412803   -0.004240
  H      0.084530    6.481508    0.885049
  H      0.084510    6.481072   -0.893549
  C      4.064589   -0.029084   -0.003390
  H     -5.122850    0.176841    0.002017
  H     -1.802776   -7.192512    0.000594
  H      1.393262    7.296517   -0.004468
  C      5.492574   -0.059283   -0.003026
  C      6.185759   -1.289431   -0.002819
  C      7.580089   -1.313817   -0.002390
  C      8.308273   -0.118677   -0.002188
  C      7.631219    1.106277   -0.002419
  C      6.237203    1.140549   -0.002850
  H      9.400533   -0.141833   -0.001853
  H      8.194107    2.042827   -0.002269
  H      5.615401   -2.220203   -0.002988
  H      5.707015    2.094785   -0.003040
  H      8.103468   -2.273007   -0.002217

 Multiplicity           Mult            ....    2
 Number of Electrons    NEL             ....  169
 Basis Dimension        Dim             ....  461

ORBITAL ENERGIES
----------------
                 SPIN UP ORBITALS
  NO   OCC          E(Eh)            E(eV)
   0   1.0000     -10.216715      -278.0109
   1   1.0000     -10.213364      -277.9198
   2   1.0000     -10.211991      -277.8824
   3   1.0000     -10.202221      -277.6165
   4   1.0000     -10.198333      -277.5107
   5   1.0000     -10.197322      -277.4832
   6   1.0000     -10.197202      -277.4800
   7   1.0000     -10.196182      -277.4522
   8   1.0000     -10.195706      -277.4393
   9   1.0000     -10.195483      -277.4332
  10   1.0000     -10.194313      -277.4014
  11   1.0000     -10.192056      -277.3399
  12   1.0000     -10.190090      -277.2864
  13   1.0000     -10.189759      -277.2774
  14   1.0000     -10.189407      -277.2679
  15   1.0000     -10.187938      -277.2279
  16   1.0000     -10.187764      -277.2231
  17   1.0000     -10.186936      -277.2006
  18   1.0000     -10.185080      -277.1501
  19   1.0000     -10.183572      -277.1091
  20   1.0000     -10.182025      -277.0670
  21   1.0000     -10.181721      -277.0587
  22   1.0000     -10.176934      -276.9284
  23   1.0000     -10.175659      -276.8938
  24   1.0000      -0.873771       -23.7765
  25   1.0000      -0.863454       -23.4958
  26   1.0000      -0.819935       -22.3116
  27   1.0000      -0.797950       -21.7133
  28   1.0000      -0.796647       -21.6779
  29   1.0000      -0.778301       -21.1786
  30   1.0000      -0.767834       -20.8938
  31   1.0000      -0.751160       -20.4401
  32   1.0000      -0.744231       -20.2515
  33   1.0000      -0.729986       -19.8639
  34   1.0000      -0.713919       -19.4267
  35   1.0000      -0.697708       -18.9856
  36   1.0000      -0.656574       -17.8663
  37   1.0000      -0.643560       -17.5122
  38   1.0000      -0.620136       -16.8748
  39   1.0000      -0.611565       -16.6415
  40   1.0000      -0.609225       -16.5779
  41   1.0000      -0.592437       -16.1210
  42   1.0000      -0.579903       -15.7800
  43   1.0000      -0.561730       -15.2855
  44   1.0000      -0.541210       -14.7271
  45   1.0000      -0.529751       -14.4153
  46   1.0000      -0.507098       -13.7988
  47   1.0000      -0.489867       -13.3300
  48   1.0000      -0.480583       -13.0773
  49   1.0000      -0.476046       -12.9539
  50   1.0000      -0.470802       -12.8112
  51   1.0000      -0.462016       -12.5721
  52   1.0000      -0.457937       -12.4611
  53   1.0000      -0.437254       -11.8983
  54   1.0000      -0.431739       -11.7482
  55   1.0000      -0.429231       -11.6800
  56   1.0000      -0.426038       -11.5931
  57   1.0000      -0.424450       -11.5499
  58   1.0000      -0.422020       -11.4837
  59   1.0000      -0.411811       -11.2060
  60   1.0000      -0.398180       -10.8350
  61   1.0000      -0.397808       -10.8249
  62   1.0000      -0.383678       -10.4404
  63   1.0000      -0.378469       -10.2987
  64   1.0000      -0.377408       -10.2698
  65   1.0000      -0.365169        -9.9368
  66   1.0000      -0.361667        -9.8415
  67   1.0000      -0.356507        -9.7011
  68   1.0000      -0.354274        -9.6403
  69   1.0000      -0.350720        -9.5436
  70   1.0000      -0.340252        -9.2587
  71   1.0000      -0.332440        -9.0462
  72   1.0000      -0.332089        -9.0366
  73   1.0000      -0.330395        -8.9905
  74   1.0000      -0.327768        -8.9190
  75   1.0000      -0.324254        -8.8234
  76   1.0000      -0.321841        -8.7577
  77   1.0000      -0.297305        -8.0901
  78   1.0000      -0.275201        -7.4886
  79   1.0000      -0.273489        -7.4420
  80   1.0000      -0.268661        -7.3106
  81   1.0000      -0.258817        -7.0428
  82   1.0000      -0.255705        -6.9581
  83   1.0000      -0.214631        -5.8404
  84   1.0000      -0.173130        -4.7111
  85   0.0000      -0.060132        -1.6363
  86   0.0000      -0.010507        -0.2859
  87   0.0000      -0.008911        -0.2425
  88   0.0000       0.016564         0.4507
  89   0.0000       0.041841         1.1386

                 SPIN DOWN ORBITALS
  NO   OCC          E(Eh)            E(eV)
   0   1.0000     -10.216553      -278.0065
   1   1.0000     -10.213592      -277.9260
   2   1.0000     -10.209930      -277.8263
   3   1.0000     -10.200786      -277.5775
   4   1.0000     -10.198770      -277.5226
   5   1.0000     -10.197482      -277.4876
   6   1.0000     -10.197363      -277.4844
   7   1.0000     -10.196289      -277.4551
   8   1.0000     -10.195633      -277.4373
   9   1.0000     -10.195463      -277.4327
  10   1.0000     -10.191690      -277.3300
  11   1.0000     -10.191187      -277.3163
  12   1.0000     -10.190190      -277.2892
  13   1.0000     -10.190007      -277.2842
  14   1.0000     -10.188622      -277.2465
  15   1.0000     -10.187690      -277.2211
  16   1.0000     -10.187142      -277.2062
  17   1.0000     -10.183775      -277.1146
  18   1.0000     -10.183532      -277.1080
  19   1.0000     -10.182025      -277.0670
  20   1.0000     -10.182021      -277.0669
  21   1.0000     -10.181717      -277.0586
  22   1.0000     -10.176942      -276.9287
  23   1.0000     -10.175661      -276.8938
  24   1.0000      -0.870401       -23.6848
  25   1.0000      -0.863529       -23.4978
  26   1.0000      -0.814989       -22.1770
  27   1.0000      -0.796723       -21.6799
  28   1.0000      -0.794167       -21.6104
  29   1.0000      -0.777944       -21.1689
  30   1.0000      -0.765704       -20.8359
  31   1.0000      -0.751309       -20.4442
  32   1.0000      -0.742980       -20.2175
  33   1.0000      -0.726385       -19.7659
  34   1.0000      -0.712221       -19.3805
  35   1.0000      -0.695391       -18.9226
  36   1.0000      -0.653564       -17.7844
  37   1.0000      -0.641824       -17.4649
  38   1.0000      -0.617140       -16.7932
  39   1.0000      -0.609335       -16.5808
  40   1.0000      -0.608752       -16.5650
  41   1.0000      -0.591508       -16.0957
  42   1.0000      -0.578309       -15.7366
  43   1.0000      -0.558722       -15.2036
  44   1.0000      -0.540555       -14.7093
  45   1.0000      -0.528006       -14.3678
  46   1.0000      -0.504092       -13.7171
  47   1.0000      -0.488268       -13.2864
  48   1.0000      -0.479808       -13.0562
  49   1.0000      -0.475156       -12.9296
  50   1.0000      -0.469950       -12.7880
  51   1.0000      -0.458538       -12.4774
  52   1.0000      -0.458002       -12.4629
  53   1.0000      -0.436834       -11.8868
  54   1.0000      -0.429949       -11.6995
  55   1.0000      -0.427941       -11.6449
  56   1.0000      -0.424907       -11.5623
  57   1.0000      -0.424448       -11.5498
  58   1.0000      -0.419390       -11.4122
  59   1.0000      -0.411292       -11.1918
  60   1.0000      -0.396692       -10.7945
  61   1.0000      -0.390542       -10.6272
  62   1.0000      -0.383139       -10.4257
  63   1.0000      -0.376150       -10.2356
  64   1.0000      -0.374180       -10.1820
  65   1.0000      -0.364025        -9.9056
  66   1.0000      -0.361620        -9.8402
  67   1.0000      -0.355670        -9.6783
  68   1.0000      -0.351168        -9.5558
  69   1.0000      -0.350754        -9.5445
  70   1.0000      -0.337988        -9.1971
  71   1.0000      -0.331906        -9.0316
  72   1.0000      -0.330695        -8.9987
  73   1.0000      -0.328128        -8.9288
  74   1.0000      -0.327406        -8.9092
  75   1.0000      -0.323431        -8.8010
  76   1.0000      -0.321479        -8.7479
  77   1.0000      -0.294159        -8.0045
  78   1.0000      -0.272852        -7.4247
  79   1.0000      -0.268485        -7.3059
  80   1.0000      -0.261353        -7.1118
  81   1.0000      -0.259231        -7.0540
  82   1.0000      -0.252346        -6.8667
  83   1.0000      -0.207369        -5.6428
  84   0.0000      -0.082809        -2.2533
  85   0.0000      -0.052295        -1.4230
  86   0.0000      -0.010869        -0.2958
  87   0.0000      -0.007253        -0.1974
  88   0.0000       0.034220         0.9312

MULLIKEN ATOMIC CHARGES AND SPIN POPULATIONS
--------------------------------------------
   0 C :   -0.605842    0.102856
   1 C :    0.634596   -0.061232
   2 C :    0.265487    0.031908
   3 C :   -0.050007    0.229036
   4 C :    0.081184   -0.167347
   5 C :   -0.029691    0.222058
   6 C :   -0.142013   -0.106643
   7 C :   -0.087321    0.237083
   8 C :    0.026987   -0.118812
   9 H :   -0.053554   -0.009273
  10 H :   -0.051525    0.004329
  11 C :   -0.098257    0.707181
  12 H :   -0.022082   -0.030129
  13 C :    0.033377   -0.048464
  14 H :    0.028770    0.031821
  15 H :    0.028777    0.031753
  16 C :   -0.037933    0.002291
  17 H :    0.012884    0.000473
  18 H :    0.012892    0.000466
  19 C :    0.006139   -0.000182
  20 H :    0.017142    0.000155
  21 H :    0.017147    0.000155
  22 C :    0.039476   -0.018888
  23 H :    0.031895    0.010116
  24 H :    0.031896    0.010113
  25 C :   -0.034222    0.000878
  26 H :    0.016961    0.000180
  27 H :    0.016950    0.000180
  28 C :   -0.024540    0.000023
  29 H :    0.005183    0.000052
  30 H :    0.005188    0.000052
  31 C :    0.004027   -0.000081
  32 H :    0.017321    0.000024
  33 H :    0.017320    0.000024
  34 C :    0.133322   -0.047325
  35 H :   -0.031083   -0.004170
  36 H :    0.013370   -0.000204
  37 H :    0.012293   -0.000005
  38 C :   -0.255051    0.010729
  39 C :    0.031239   -0.011053
  40 C :    0.040849    0.005797
  41 C :    0.033611   -0.011689
  42 C :    0.040531    0.005786
  43 C :    0.028640   -0.011021
  44 H :   -0.027361    0.000535
  45 H :   -0.027451   -0.000234
  46 H :   -0.040548    0.000479
  47 H :   -0.039595    0.000455
  48 H :   -0.027378   -0.000235
Sum of atomic charges         :    0.0000000

LOEWDIN ATOMIC CHARGES AND SPIN POPULATIONS
-------------------------------------------
   0 C :   -0.052674    0.082186
   1 C :   -0.002717   -0.024250
   2 C :   -0.016066    0.016875
   3 C :   -0.041839    0.163600
   4 C :   -0.039927   -0.070933
   5 C :    0.009636    0.167879
   6 C :   -0.051916   -0.058596
   7 C :   -0.005231    0.175245
   8 C :   -0.007453   -0.064984
   9 H :    0.028184    0.000876
  10 H :    0.030754   -0.000463
  11 C :    0.013860    0.581474
  12 H :    0.023014    0.003348
  13 C :   -0.054762    0.005521
  14 H :    0.034298    0.024843
  15 H :    0.034282    0.024787
  16 C :   -0.045799    0.001171
  17 H :    0.025914    0.000301
  18 H :    0.025914    0.000298
  19 C :   -0.067652   -0.000043
  20 H :    0.025438    0.000249
  21 H :    0.025438    0.000250
  22 C :   -0.035595    0.002169
  23 H :    0.038791    0.007951
  24 H :    0.038792    0.007949
  25 C :   -0.043443    0.000163
  26 H :    0.024705    0.000059
  27 H :    0.024703    0.000059
  28 C :   -0.047244    0.000016
  29 H :    0.023771    0.000090
  30 H :    0.023773    0.000090
  31 C :   -0.067424   -0.000039
  32 H :    0.025340    0.000016
  33 H :    0.025341    0.000016
  34 C :   -0.022269   -0.033903
  35 H :    0.022055    0.000123
  36 H :    0.028305   -0.000112
  37 H :    0.027361   -0.000007
  38 C :   -0.053491    0.004908
  39 C :   -0.001125   -0.008508
  40 C :   -0.023567    0.003442
  41 C :   -0.020999   -0.009024
  42 C :   -0.023715    0.003436
  43 C :   -0.002020   -0.008492
  44 H :    0.028256   -0.000032
  45 H :    0.029396    0.000011
  46 H :    0.030102   -0.000009
  47 H :    0.030051   -0.000015
  48 H :    0.029454    0.000011

  Mayer bond orders larger than 0.100000
B(  0-C ,  1-C ) :   2.0936 B(  0-C , 35-H ) :   1.1203 B(  1-C ,  3-C ) :   0.9053
B(  2-C ,  6-C ) :   0.8773 B(  2-C , 34-C ) :   1.7564 B(  2-C , 38-C ) :  -0.1755
B(  3-C ,  4-C ) :   1.2770 B(  3-C ,  8-C ) :   1.3921 B(  4-C ,  5-C ) :   1.2889
B(  4-C , 11-C ) :   1.3674 B(  5-C ,  6-C ) :   1.4467 B(  5-C ,  9-H ) :   0.9197
B(  6-C ,  7-C ) :   1.3491 B(  7-C ,  8-C ) :   1.4158 B(  7-C , 22-C ) :   1.0953
B(  8-C , 10-H ) :   0.9200 B( 11-C , 12-H ) :   0.9016 B( 11-C , 13-C ) :   1.0838
B( 13-C , 14-H ) :   0.9117 B( 13-C , 15-H ) :   0.9117 B( 13-C , 16-C ) :   1.0716
B( 16-C , 17-H ) :   0.9437 B( 16-C , 18-H ) :   0.9437 B( 16-C , 19-C ) :   1.1066
B( 19-C , 20-H ) :   0.9653 B( 19-C , 21-H ) :   0.9653 B( 19-C , 36-H ) :   0.9609
B( 22-C , 23-H ) :   0.8961 B( 22-C , 24-H ) :   0.8961 B( 22-C , 25-C ) :   1.1040
B( 25-C , 26-H ) :   0.9293 B( 25-C , 27-H ) :   0.9293 B( 25-C , 28-C ) :   1.0749
B( 28-C , 29-H ) :   0.9409 B( 28-C , 30-H ) :   0.9409 B( 28-C , 31-C ) :   1.1062
B( 31-C , 32-H ) :   0.9662 B( 31-C , 33-H ) :   0.9662 B( 31-C , 37-H ) :   0.9616
B( 34-C , 38-C ) :   0.9293 B( 38-C , 39-C ) :   1.4425 B( 38-C , 43-C ) :   1.4395
B( 39-C , 40-C ) :   1.4698 B( 39-C , 46-H ) :   0.9401 B( 40-C , 41-C ) :   1.4446
B( 40-C , 48-H ) :   0.9380 B( 41-C , 42-C ) :   1.4438 B( 41-C , 44-H ) :   0.9433
B( 42-C , 43-C ) :   1.4702 B( 42-C , 45-H ) :   0.9380 B( 43-C , 47-H ) :   0.9406

FINAL SINGLE POINT ENERGY      -928.901884379320

DIPOLE MOMENT
-------------
                                X             Y             Z
Electronic contribution:      9.45016      -2.44955      -0.00478
Nuclear contribution   :     -9.07844       2.40891       0.00614
                        -----------------------------------------
Total Dipole Moment    :      0.37172      -0.04064       0.00137
                        -----------------------------------------
Magnitude (a.u.)       :      0.37394
Magnitude (Debye)      :      0.95048

Rotational constants in cm-1:     0.006649     0.004192     0.002580
Rotational constants in MHz :   199.340829   125.673366    77.338746

                             ****ORCA TERMINATED NORMALLY****
TOTAL RUN TIME: 0 days 0 hours 4 minutes 0 seconds 496 msec
