                         Program Version 5.0.4 -  RELEASE  -
|  1> ! B3LYP EPR-II OPT
|  2> %pal nprocs 16 end
|  3> *XYZFile 0 2 model.xyz
|  4>
|  5>                          ****END OF INPUT****
 Total Charge           Charge          ....    0
 Multiplicity           Mult            ....    2
 Number of Electrons    NEL             ....  169
FINAL SINGLE POINT ENERGY      -928.972439066539
FINAL SINGLE POINT ENERGY      -928.973541395413
FINAL SINGLE POINT ENERGY      -928.973593363144
FINAL SINGLE POINT ENERGY      -928.973608565364
FINAL SINGLE POINT ENERGY      -928.973611578272
FINAL SINGLE POINT ENERGY      -928.973612715588
                    ***********************HURRAY********************

CARTESIAN COORDINATES (ANGSTROEM)
---------------------------------
  C     -4.061290    0.097243   -0.003202
  C     -2.840340    0.052513   -0.004175
  C      2.848212   -0.004613   -0.002808
  C     -1.410878    0.005855   -0.003739
  C     -0.709102   -1.257882   -0.003309
  C      0.715759   -1.196526   -0.003042
  C      1.416609    0.016907   -0.003117
  C      0.709302    1.264187   -0.003433
  C     -0.690083    1.216305   -0.003817
  H      1.285575   -2.119016   -0.002768
  H     -1.258721    2.139144   -0.004153
  C     -1.403807   -2.492986   -0.003062
  H     -2.489925   -2.456482   -0.003312
  C     -0.746616   -3.847576   -0.002681
  H     -0.087180   -3.946178   -0.879822
  H     -0.083959   -3.944191    0.872218
  C     -1.754451   -5.012136    0.000519
  H     -2.403490   -4.922182    0.880879
  H     -2.406906   -4.924132   -0.877516
  C     -1.073601   -6.390947    0.000713
  H     -0.437554   -6.516405    0.884356
  H     -0.440921   -6.518309   -0.885074
  C      1.486840    2.569297   -0.003405
  H      2.155628    2.570543    0.868552
  H      2.155790    2.570502   -0.875241
  C      0.658240    3.863515   -0.003491
  H      0.002713    3.887888   -0.884221
  H      0.002412    3.887792    0.877019
  C      1.540623    5.124977   -0.003274
  H      2.198559    5.106045    0.875831
  H      2.198796    5.106188   -0.882204
  C      0.723584    6.428707   -0.003274
  H      0.079270    6.489196    0.881080
  H      0.079479    6.489332   -0.887770
  C      4.073248   -0.023786   -0.003632
  H     -5.126248    0.140881   -0.001501
  H     -1.812409   -7.198818    0.002987
  H      1.375928    7.308115   -0.003129
  C      5.505221   -0.055993   -0.003216
  C      6.195829   -1.292467   -0.003138
  C      7.595063   -1.320535   -0.002633
  C      8.329430   -0.122421   -0.002224
  C      7.652183    1.108936   -0.002329
  C      6.253125    1.146554   -0.002836
  H      9.415819   -0.148062   -0.001830
  H      8.215069    2.038709   -0.002016
  H      5.625878   -2.216856   -0.003456
  H      5.727831    2.096999   -0.002920
  H      8.113815   -2.275648   -0.002559

 Multiplicity           Mult            ....    2
 Number of Electrons    NEL             ....  169
 Basis Dimension        Dim             ....  583

ORBITAL ENERGIES
----------------
                 SPIN UP ORBITALS
  NO   OCC          E(Eh)            E(eV)
   0   1.0000     -10.229112      -278.3483
   1   1.0000     -10.224321      -278.2179
   2   1.0000     -10.222693      -278.1736
   3   1.0000     -10.211916      -277.8804
   4   1.0000     -10.209320      -277.8097
   5   1.0000     -10.206128      -277.7229
   6   1.0000     -10.206003      -277.7195
   7   1.0000     -10.205805      -277.7141
   8   1.0000     -10.205123      -277.6955
   9   1.0000     -10.204934      -277.6904
  10   1.0000     -10.204368      -277.6750
  11   1.0000     -10.203117      -277.6409
  12   1.0000     -10.201449      -277.5955
  13   1.0000     -10.201026      -277.5840
  14   1.0000     -10.197750      -277.4949
  15   1.0000     -10.197394      -277.4852
  16   1.0000     -10.196123      -277.4506
  17   1.0000     -10.188454      -277.2419
  18   1.0000     -10.187092      -277.2049
  19   1.0000     -10.183310      -277.1019
  20   1.0000     -10.181392      -277.0498
  21   1.0000     -10.181152      -277.0432
  22   1.0000     -10.172703      -276.8133
  23   1.0000     -10.170991      -276.7667
  24   1.0000      -0.871908       -23.7258
  25   1.0000      -0.861373       -23.4392
  26   1.0000      -0.817838       -22.2545
  27   1.0000      -0.796835       -21.6830
  28   1.0000      -0.793856       -21.6019
  29   1.0000      -0.777506       -21.1570
  30   1.0000      -0.765891       -20.8410
  31   1.0000      -0.750986       -20.4354
  32   1.0000      -0.744099       -20.2480
  33   1.0000      -0.728610       -19.8265
  34   1.0000      -0.714223       -19.4350
  35   1.0000      -0.696538       -18.9538
  36   1.0000      -0.655992       -17.8505
  37   1.0000      -0.643613       -17.5136
  38   1.0000      -0.620523       -16.8853
  39   1.0000      -0.611967       -16.6525
  40   1.0000      -0.610385       -16.6094
  41   1.0000      -0.593167       -16.1409
  42   1.0000      -0.580893       -15.8069
  43   1.0000      -0.562927       -15.3180
  44   1.0000      -0.542647       -14.7662
  45   1.0000      -0.531815       -14.4714
  46   1.0000      -0.507183       -13.8012
  47   1.0000      -0.491333       -13.3699
  48   1.0000      -0.481796       -13.1103
  49   1.0000      -0.476125       -12.9560
  50   1.0000      -0.471363       -12.8264
  51   1.0000      -0.463146       -12.6028
  52   1.0000      -0.456116       -12.4116
  53   1.0000      -0.438845       -11.9416
  54   1.0000      -0.432019       -11.7558
  55   1.0000      -0.428539       -11.6611
  56   1.0000      -0.426484       -11.6052
  57   1.0000      -0.425119       -11.5681
  58   1.0000      -0.422863       -11.5067
  59   1.0000      -0.411721       -11.2035
  60   1.0000      -0.399144       -10.8613
  61   1.0000      -0.396728       -10.7955
  62   1.0000      -0.383330       -10.4309
  63   1.0000      -0.378502       -10.2996
  64   1.0000      -0.376821       -10.2538
  65   1.0000      -0.364624        -9.9219
  66   1.0000      -0.363363        -9.8876
  67   1.0000      -0.356355        -9.6969
  68   1.0000      -0.355982        -9.6868
  69   1.0000      -0.353170        -9.6102
  70   1.0000      -0.338154        -9.2016
  71   1.0000      -0.333123        -9.0647
  72   1.0000      -0.332037        -9.0352
  73   1.0000      -0.331996        -9.0341
  74   1.0000      -0.327160        -8.9025
  75   1.0000      -0.323353        -8.7989
  76   1.0000      -0.322111        -8.7651
  77   1.0000      -0.297310        -8.0902
  78   1.0000      -0.275438        -7.4951
  79   1.0000      -0.274752        -7.4764
  80   1.0000      -0.269288        -7.3277
  81   1.0000      -0.258863        -7.0440
  82   1.0000      -0.256154        -6.9703
  83   1.0000      -0.215406        -5.8615
  84   1.0000      -0.174064        -4.7365
  85   0.0000      -0.062627        -1.7042
  86   0.0000      -0.015849        -0.4313
  87   0.0000      -0.013310        -0.3622
  88   0.0000       0.013401         0.3647
  89   0.0000       0.014578         0.3967

                 SPIN DOWN ORBITALS
  NO   OCC          E(Eh)            E(eV)
   0   1.0000     -10.228946      -278.3438
   1   1.0000     -10.224306      -278.2175
   2   1.0000     -10.220882      -278.1243
   3   1.0000     -10.211774      -277.8765
   4   1.0000     -10.208459      -277.7863
   5   1.0000     -10.206270      -277.7267
   6   1.0000     -10.206142      -277.7232
   7   1.0000     -10.205957      -277.7182
   8   1.0000     -10.205203      -277.6977
   9   1.0000     -10.205063      -277.6939
  10   1.0000     -10.204901      -277.6895
  11   1.0000     -10.203405      -277.6488
  12   1.0000     -10.200911      -277.5809
  13   1.0000     -10.198996      -277.5288
  14   1.0000     -10.198320      -277.5104
  15   1.0000     -10.194792      -277.4144
  16   1.0000     -10.189110      -277.2598
  17   1.0000     -10.187788      -277.2238
  18   1.0000     -10.187289      -277.2102
  19   1.0000     -10.183274      -277.1010
  20   1.0000     -10.181392      -277.0498
  21   1.0000     -10.181150      -277.0432
  22   1.0000     -10.172713      -276.8136
  23   1.0000     -10.170992      -276.7668
  24   1.0000      -0.868551       -23.6345
  25   1.0000      -0.861449       -23.4412
  26   1.0000      -0.812991       -22.1226
  27   1.0000      -0.795302       -21.6413
  28   1.0000      -0.791536       -21.5388
  29   1.0000      -0.777146       -21.1472
  30   1.0000      -0.763847       -20.7853
  31   1.0000      -0.751136       -20.4395
  32   1.0000      -0.743045       -20.2193
  33   1.0000      -0.724926       -19.7263
  34   1.0000      -0.712521       -19.3887
  35   1.0000      -0.694271       -18.8921
  36   1.0000      -0.652912       -17.7666
  37   1.0000      -0.641905       -17.4671
  38   1.0000      -0.617591       -16.8055
  39   1.0000      -0.610490       -16.6123
  40   1.0000      -0.609105       -16.5746
  41   1.0000      -0.592269       -16.1165
  42   1.0000      -0.579268       -15.7627
  43   1.0000      -0.559856       -15.2345
  44   1.0000      -0.541938       -14.7469
  45   1.0000      -0.530178       -14.4269
  46   1.0000      -0.504239       -13.7210
  47   1.0000      -0.489738       -13.3264
  48   1.0000      -0.481293       -13.0966
  49   1.0000      -0.474762       -12.9189
  50   1.0000      -0.470516       -12.8034
  51   1.0000      -0.459761       -12.5107
  52   1.0000      -0.456185       -12.4134
  53   1.0000      -0.438617       -11.9354
  54   1.0000      -0.430949       -11.7267
  55   1.0000      -0.426519       -11.6062
  56   1.0000      -0.426207       -11.5977
  57   1.0000      -0.423937       -11.5359
  58   1.0000      -0.420395       -11.4395
  59   1.0000      -0.411291       -11.1918
  60   1.0000      -0.395555       -10.7636
  61   1.0000      -0.391716       -10.6591
  62   1.0000      -0.382316       -10.4034
  63   1.0000      -0.376146       -10.2355
  64   1.0000      -0.374091       -10.1795
  65   1.0000      -0.363445        -9.8898
  66   1.0000      -0.363418        -9.8891
  67   1.0000      -0.355495        -9.6735
  68   1.0000      -0.353187        -9.6107
  69   1.0000      -0.352905        -9.6030
  70   1.0000      -0.335785        -9.1372
  71   1.0000      -0.331586        -9.0229
  72   1.0000      -0.331492        -9.0204
  73   1.0000      -0.329970        -8.9789
  74   1.0000      -0.326754        -8.8914
  75   1.0000      -0.322899        -8.7865
  76   1.0000      -0.321412        -8.7461
  77   1.0000      -0.294205        -8.0057
  78   1.0000      -0.274130        -7.4594
  79   1.0000      -0.269113        -7.3229
  80   1.0000      -0.261511        -7.1161
  81   1.0000      -0.259283        -7.0554
  82   1.0000      -0.252759        -6.8779
  83   1.0000      -0.208222        -5.6660
  84   0.0000      -0.084175        -2.2905
  85   0.0000      -0.054959        -1.4955
  86   0.0000      -0.016204        -0.4409
  87   0.0000      -0.011745        -0.3196
  88   0.0000       0.014739         0.4011

MULLIKEN ATOMIC CHARGES AND SPIN POPULATIONS
--------------------------------------------
   0 C :   -0.542413    0.102025
   1 C :   -0.014014   -0.054761
   2 C :   -0.387962    0.028491
   3 C :    0.343851    0.204524
   4 C :    0.445237   -0.136107
   5 C :   -0.457799    0.213249
   6 C :    0.547318   -0.091550
   7 C :    0.239607    0.223772
   8 C :   -0.380232   -0.111174
   9 H :    0.130307   -0.011514
  10 H :    0.133797    0.005186
  11 C :   -0.297585    0.703709
  12 H :    0.134308   -0.036570
  13 C :   -0.271745   -0.045434
  14 H :    0.152360    0.029703
  15 H :    0.152208    0.029591
  16 C :   -0.289458    0.002235
  17 H :    0.155928   -0.000150
  18 H :    0.155859   -0.000148
  19 C :   -0.509425   -0.000796
  20 H :    0.158929    0.000167
  21 H :    0.158925    0.000167
  22 C :   -0.356425   -0.016660
  23 H :    0.152413    0.010324
  24 H :    0.152377    0.010330
  25 C :   -0.271328    0.000903
  26 H :    0.142033    0.000173
  27 H :    0.142045    0.000173
  28 C :   -0.262600   -0.000237
  29 H :    0.144055    0.000043
  30 H :    0.144058    0.000043
  31 C :   -0.510353   -0.000085
  32 H :    0.159926    0.000023
  33 H :    0.159927    0.000023
  34 C :   -0.299235   -0.043770
  35 H :    0.184339   -0.004124
  36 H :    0.146253   -0.000168
  37 H :    0.143669   -0.000005
  38 C :    0.587361    0.009292
  39 C :   -0.280664   -0.010863
  40 C :   -0.097964    0.005728
  41 C :   -0.122070   -0.011827
  42 C :   -0.102101    0.005722
  43 C :   -0.272055   -0.010903
  44 H :    0.107060    0.000666
  45 H :    0.106043   -0.000285
  46 H :    0.119770    0.000577
  47 H :    0.119395    0.000576
  48 H :    0.106068   -0.000284
Sum of atomic charges         :   -0.0000000

LOEWDIN ATOMIC CHARGES AND SPIN POPULATIONS
-------------------------------------------
   0 C :   -0.064576    0.081389
   1 C :   -0.032340   -0.023698
   2 C :   -0.028080    0.017018
   3 C :   -0.059535    0.164008
   4 C :   -0.066175   -0.071241
   5 C :    0.008883    0.169849
   6 C :   -0.066599   -0.059048
   7 C :   -0.040175    0.176512
   8 C :   -0.008491   -0.065671
   9 H :    0.059278    0.001215
  10 H :    0.061579   -0.000588
  11 C :   -0.006626    0.582362
  12 H :    0.058635    0.004567
  13 C :   -0.082761    0.003548
  14 H :    0.054125    0.024360
  15 H :    0.054069    0.024260
  16 C :   -0.087301    0.000945
  17 H :    0.042424   -0.000047
  18 H :    0.042410   -0.000047
  19 C :   -0.078050   -0.000166
  20 H :    0.034163    0.000202
  21 H :    0.034164    0.000202
  22 C :   -0.045102    0.001618
  23 H :    0.059252    0.008201
  24 H :    0.059255    0.008203
  25 C :   -0.079443    0.000197
  26 H :    0.044769    0.000008
  27 H :    0.044774    0.000008
  28 C :   -0.090563   -0.000006
  29 H :    0.040751    0.000059
  30 H :    0.040752    0.000059
  31 C :   -0.078581   -0.000034
  32 H :    0.034185    0.000015
  33 H :    0.034186    0.000015
  34 C :   -0.034175   -0.034107
  35 H :    0.044897    0.000459
  36 H :    0.032347   -0.000084
  37 H :    0.031521   -0.000006
  38 C :   -0.071978    0.005029
  39 C :   -0.015047   -0.008681
  40 C :   -0.042357    0.003538
  41 C :   -0.042158   -0.009214
  42 C :   -0.042676    0.003535
  43 C :   -0.015478   -0.008671
  44 H :    0.049195   -0.000062
  45 H :    0.050322    0.000023
  46 H :    0.056108   -0.000029
  47 H :    0.055826   -0.000029
  48 H :    0.050398    0.000023

  Mayer bond orders larger than 0.100000
B(  0-C ,  1-C ) :   2.6935 B(  0-C , 35-H ) :   0.9862 B(  1-C ,  3-C ) :   0.9243
B(  2-C ,  6-C ) :   0.7863 B(  2-C , 34-C ) :   2.5207 B(  3-C ,  4-C ) :   1.2449
B(  3-C ,  8-C ) :   1.4267 B(  4-C ,  5-C ) :   1.2332 B(  4-C ,  6-C ) :   0.1125
B(  4-C , 11-C ) :   1.2672 B(  5-C ,  6-C ) :   1.4949 B(  5-C ,  9-H ) :   0.9694
B(  6-C ,  7-C ) :   1.3267 B(  6-C ,  8-C ) :   0.1217 B(  7-C ,  8-C ) :   1.4176
B(  7-C , 22-C ) :   0.9657 B(  8-C , 10-H ) :   0.9706 B( 11-C , 12-H ) :   0.9899
B( 11-C , 13-C ) :   1.0031 B( 13-C , 14-H ) :   0.9554 B( 13-C , 15-H ) :   0.9553
B( 13-C , 16-C ) :   0.9807 B( 16-C , 17-H ) :   0.9723 B( 16-C , 18-H ) :   0.9722
B( 16-C , 19-C ) :   0.9614 B( 19-C , 20-H ) :   0.9729 B( 19-C , 21-H ) :   0.9729
B( 19-C , 36-H ) :   0.9674 B( 22-C , 23-H ) :   0.9552 B( 22-C , 24-H ) :   0.9553
B( 22-C , 25-C ) :   1.0233 B( 25-C , 26-H ) :   0.9616 B( 25-C , 27-H ) :   0.9616
B( 25-C , 28-C ) :   0.9863 B( 28-C , 29-H ) :   0.9720 B( 28-C , 30-H ) :   0.9720
B( 28-C , 31-C ) :   0.9547 B( 31-C , 32-H ) :   0.9731 B( 31-C , 33-H ) :   0.9731
B( 31-C , 37-H ) :   0.9674 B( 34-C , 38-C ) :   1.0056 B( 38-C , 39-C ) :   1.3900
B( 38-C , 43-C ) :   1.3847 B( 39-C , 40-C ) :   1.4770 B( 39-C , 46-H ) :   0.9820
B( 40-C , 41-C ) :   1.4526 B( 40-C , 48-H ) :   0.9758 B( 41-C , 42-C ) :   1.4555
B( 41-C , 44-H ) :   0.9657 B( 42-C , 43-C ) :   1.4766 B( 42-C , 45-H ) :   0.9768
B( 43-C , 47-H ) :   0.9797

FINAL SINGLE POINT ENERGY      -928.973613680530

DIPOLE MOMENT
-------------
                                X             Y             Z
Electronic contribution:      9.61082      -2.45569      -0.01183
Nuclear contribution   :     -9.17689       2.39246       0.01285
                        -----------------------------------------
Total Dipole Moment    :      0.43393      -0.06323       0.00102
                        -----------------------------------------
Magnitude (a.u.)       :      0.43852
Magnitude (Debye)      :      1.11462

Rotational constants in cm-1:     0.006624     0.004171     0.002568
Rotational constants in MHz :   198.575673   125.029999    76.977840

                             ****ORCA TERMINATED NORMALLY****
TOTAL RUN TIME: 0 days 0 hours 15 minutes 55 seconds 38 msec
