                         Program Version 5.0.4 -  RELEASE  -
|  1> ! B3LYP cc-pVDZ OPT
|  2> %pal nprocs 16 end
|  3> *XYZFile 0 2 model.xyz
|  4>
|  5>                          ****END OF INPUT****
 Total Charge           Charge          ....    0
 Multiplicity           Mult            ....    2
 Number of Electrons    NEL             ....  169
FINAL SINGLE POINT ENERGY      -928.901884340312
                    ***********************HURRAY********************

CARTESIAN COORDINATES (ANGSTROEM)
---------------------------------
  C     -4.052444    0.114576   -0.001917
  C     -2.836695    0.052025   -0.003549
  C      2.842695   -0.002426   -0.002408
  C     -1.410144    0.003191   -0.003255
  C     -0.707833   -1.257321   -0.002801
  C      0.713475   -1.191078   -0.002467
  C      1.414021    0.018615   -0.002638
  C      0.705646    1.262168   -0.003060
  C     -0.689967    1.210355   -0.003436
  H      1.289119   -2.116882   -0.002129
  H     -1.264137    2.136725   -0.003842
  C     -1.395767   -2.491604   -0.002682
  H     -2.488356   -2.454946   -0.003084
  C     -0.739360   -3.839669   -0.002176
  H     -0.068220   -3.935242   -0.880855
  H     -0.067023   -3.934025    0.875699
  C     -1.736885   -5.005361   -0.000686
  H     -2.395172   -4.914378    0.882525
  H     -2.396441   -4.915579   -0.883075
  C     -1.058620   -6.376565   -0.000244
  H     -0.417437   -6.506580    0.888808
  H     -0.418674   -6.507764   -0.890012
  C      1.478555    2.564463   -0.003144
  H      2.156290    2.563709    0.871191
  H      2.156815    2.563291   -0.877069
  C      0.659046    3.857635   -0.003676
  H     -0.004000    3.881923   -0.888042
  H     -0.004408    3.882379    0.880373
  C      1.539231    5.113403   -0.003803
  H      2.205315    5.090862    0.878749
  H      2.205482    5.090558   -0.886221
  C      0.732674    6.414392   -0.004106
  H      0.082535    6.482884    0.885190
  H      0.082600    6.482510   -0.893479
  C      4.064440   -0.027928   -0.003417
  H     -5.123092    0.174772    0.001530
  H     -1.799228   -7.192431    0.000819
  H      1.391168    7.298169   -0.004270
  C      5.492399   -0.059967   -0.003046
  C      6.183758   -1.291155   -0.002801
  C      7.578043   -1.317672   -0.002381
  C      8.307982   -0.123597   -0.002235
  C      7.632783    1.102378   -0.002518
  C      6.238787    1.138745   -0.002938
  H      9.400210   -0.148386   -0.001911
  H      8.197162    2.038024   -0.002414
  H      5.612073   -2.221113   -0.002927
  H      5.710033    2.093778   -0.003169
  H      8.099916   -2.277678   -0.002172

 Multiplicity           Mult            ....    2
 Number of Electrons    NEL             ....  169
 Basis Dimension        Dim             ....  461

ORBITAL ENERGIES
----------------
                 SPIN UP ORBITALS
  NO   OCC          E(Eh)            E(eV)
   0   1.0000     -10.216715      -278.0109
   1   1.0000     -10.213358      -277.9196
   2   1.0000     -10.211984      -277.8822
   3   1.0000     -10.202216      -277.6164
   4   1.0000     -10.198336      -277.5108
   5   1.0000     -10.197327      -277.4834
   6   1.0000     -10.197197      -277.4798
   7   1.0000     -10.196182      -277.4522
   8   1.0000     -10.195706      -277.4393
   9   1.0000     -10.195482      -277.4332
  10   1.0000     -10.194317      -277.4015
  11   1.0000     -10.192055      -277.3399
  12   1.0000     -10.190085      -277.2863
  13   1.0000     -10.189758      -277.2774
  14   1.0000     -10.189404      -277.2678
  15   1.0000     -10.187946      -277.2281
  16   1.0000     -10.187762      -277.2231
  17   1.0000     -10.186931      -277.2005
  18   1.0000     -10.185079      -277.1501
  19   1.0000     -10.183580      -277.1093
  20   1.0000     -10.182025      -277.0670
  21   1.0000     -10.181723      -277.0588
  22   1.0000     -10.176936      -276.9285
  23   1.0000     -10.175657      -276.8937
  24   1.0000      -0.873770       -23.7765
  25   1.0000      -0.863451       -23.4957
  26   1.0000      -0.819932       -22.3115
  27   1.0000      -0.797948       -21.7133
  28   1.0000      -0.796637       -21.6776
  29   1.0000      -0.778297       -21.1785
  30   1.0000      -0.767825       -20.8936
  31   1.0000      -0.751158       -20.4400
  32   1.0000      -0.744232       -20.2516
  33   1.0000      -0.729977       -19.8637
  34   1.0000      -0.713913       -19.4266
  35   1.0000      -0.697703       -18.9855
  36   1.0000      -0.656576       -17.8663
  37   1.0000      -0.643553       -17.5120
  38   1.0000      -0.620134       -16.8747
  39   1.0000      -0.611559       -16.6414
  40   1.0000      -0.609225       -16.5778
  41   1.0000      -0.592442       -16.1212
  42   1.0000      -0.579909       -15.7801
  43   1.0000      -0.561740       -15.2857
  44   1.0000      -0.541210       -14.7271
  45   1.0000      -0.529750       -14.4152
  46   1.0000      -0.507089       -13.7986
  47   1.0000      -0.489868       -13.3300
  48   1.0000      -0.480583       -13.0773
  49   1.0000      -0.476040       -12.9537
  50   1.0000      -0.470793       -12.8109
  51   1.0000      -0.462018       -12.5722
  52   1.0000      -0.457935       -12.4610
  53   1.0000      -0.437254       -11.8983
  54   1.0000      -0.431742       -11.7483
  55   1.0000      -0.429218       -11.6796
  56   1.0000      -0.426027       -11.5928
  57   1.0000      -0.424451       -11.5499
  58   1.0000      -0.422015       -11.4836
  59   1.0000      -0.411797       -11.2056
  60   1.0000      -0.398189       -10.8353
  61   1.0000      -0.397803       -10.8248
  62   1.0000      -0.383680       -10.4405
  63   1.0000      -0.378455       -10.2983
  64   1.0000      -0.377411       -10.2699
  65   1.0000      -0.365159        -9.9365
  66   1.0000      -0.361656        -9.8412
  67   1.0000      -0.356497        -9.7008
  68   1.0000      -0.354277        -9.6404
  69   1.0000      -0.350723        -9.5437
  70   1.0000      -0.340244        -9.2585
  71   1.0000      -0.332445        -9.0463
  72   1.0000      -0.332092        -9.0367
  73   1.0000      -0.330409        -8.9909
  74   1.0000      -0.327770        -8.9191
  75   1.0000      -0.324246        -8.8232
  76   1.0000      -0.321852        -8.7580
  77   1.0000      -0.297303        -8.0900
  78   1.0000      -0.275204        -7.4887
  79   1.0000      -0.273489        -7.4420
  80   1.0000      -0.268663        -7.3107
  81   1.0000      -0.258814        -7.0427
  82   1.0000      -0.255702        -6.9580
  83   1.0000      -0.214626        -5.8403
  84   1.0000      -0.173132        -4.7111
  85   0.0000      -0.060127        -1.6361
  86   0.0000      -0.010509        -0.2860
  87   0.0000      -0.008911        -0.2425
  88   0.0000       0.016568         0.4508
  89   0.0000       0.041843         1.1386

                 SPIN DOWN ORBITALS
  NO   OCC          E(Eh)            E(eV)
   0   1.0000     -10.216552      -278.0065
   1   1.0000     -10.213585      -277.9258
   2   1.0000     -10.209924      -277.8261
   3   1.0000     -10.200790      -277.5776
   4   1.0000     -10.198765      -277.5225
   5   1.0000     -10.197488      -277.4877
   6   1.0000     -10.197357      -277.4842
   7   1.0000     -10.196288      -277.4551
   8   1.0000     -10.195633      -277.4373
   9   1.0000     -10.195462      -277.4326
  10   1.0000     -10.191685      -277.3298
  11   1.0000     -10.191190      -277.3164
  12   1.0000     -10.190187      -277.2891
  13   1.0000     -10.190005      -277.2841
  14   1.0000     -10.188630      -277.2467
  15   1.0000     -10.187690      -277.2211
  16   1.0000     -10.187137      -277.2061
  17   1.0000     -10.183774      -277.1146
  18   1.0000     -10.183541      -277.1082
  19   1.0000     -10.182026      -277.0670
  20   1.0000     -10.182020      -277.0669
  21   1.0000     -10.181720      -277.0587
  22   1.0000     -10.176943      -276.9287
  23   1.0000     -10.175659      -276.8938
  24   1.0000      -0.870399       -23.6848
  25   1.0000      -0.863526       -23.4977
  26   1.0000      -0.814985       -22.1769
  27   1.0000      -0.796719       -21.6798
  28   1.0000      -0.794157       -21.6101
  29   1.0000      -0.777940       -21.1688
  30   1.0000      -0.765695       -20.8356
  31   1.0000      -0.751307       -20.4441
  32   1.0000      -0.742980       -20.2175
  33   1.0000      -0.726377       -19.7657
  34   1.0000      -0.712216       -19.3804
  35   1.0000      -0.695386       -18.9224
  36   1.0000      -0.653567       -17.7845
  37   1.0000      -0.641816       -17.4647
  38   1.0000      -0.617138       -16.7932
  39   1.0000      -0.609335       -16.5808
  40   1.0000      -0.608745       -16.5648
  41   1.0000      -0.591513       -16.0959
  42   1.0000      -0.578315       -15.7367
  43   1.0000      -0.558732       -15.2039
  44   1.0000      -0.540554       -14.7092
  45   1.0000      -0.528006       -14.3678
  46   1.0000      -0.504083       -13.7168
  47   1.0000      -0.488268       -13.2864
  48   1.0000      -0.479809       -13.0563
  49   1.0000      -0.475151       -12.9295
  50   1.0000      -0.469940       -12.7877
  51   1.0000      -0.458541       -12.4775
  52   1.0000      -0.458000       -12.4628
  53   1.0000      -0.436833       -11.8868
  54   1.0000      -0.429946       -11.6994
  55   1.0000      -0.427934       -11.6447
  56   1.0000      -0.424896       -11.5620
  57   1.0000      -0.424447       -11.5498
  58   1.0000      -0.419385       -11.4121
  59   1.0000      -0.411277       -11.1914
  60   1.0000      -0.396687       -10.7944
  61   1.0000      -0.390552       -10.6275
  62   1.0000      -0.383140       -10.4258
  63   1.0000      -0.376136       -10.2352
  64   1.0000      -0.374185       -10.1821
  65   1.0000      -0.364015        -9.9054
  66   1.0000      -0.361609        -9.8399
  67   1.0000      -0.355660        -9.6780
  68   1.0000      -0.351171        -9.5558
  69   1.0000      -0.350758        -9.5446
  70   1.0000      -0.337981        -9.1969
  71   1.0000      -0.331911        -9.0317
  72   1.0000      -0.330698        -8.9987
  73   1.0000      -0.328142        -8.9292
  74   1.0000      -0.327406        -8.9092
  75   1.0000      -0.323423        -8.8008
  76   1.0000      -0.321489        -8.7482
  77   1.0000      -0.294155        -8.0044
  78   1.0000      -0.272852        -7.4247
  79   1.0000      -0.268488        -7.3059
  80   1.0000      -0.261354        -7.1118
  81   1.0000      -0.259229        -7.0540
  82   1.0000      -0.252342        -6.8666
  83   1.0000      -0.207365        -5.6427
  84   0.0000      -0.082813        -2.2535
  85   0.0000      -0.052289        -1.4229
  86   0.0000      -0.010871        -0.2958
  87   0.0000      -0.007253        -0.1974
  88   0.0000       0.034224         0.9313

MULLIKEN ATOMIC CHARGES AND SPIN POPULATIONS
--------------------------------------------
   0 C :   -0.605820    0.102878
   1 C :    0.634582   -0.061244
   2 C :    0.265537    0.031912
   3 C :   -0.050041    0.229053
   4 C :    0.081230   -0.167356
   5 C :   -0.029811    0.222103
   6 C :   -0.142054   -0.106655
   7 C :   -0.087181    0.237103
   8 C :    0.027017   -0.118831
   9 H :   -0.053556   -0.009274
  10 H :   -0.051539    0.004330
  11 C :   -0.098257    0.707149
  12 H :   -0.022095   -0.030129
  13 C :    0.033415   -0.048458
  14 H :    0.028779    0.031809
  15 H :    0.028786    0.031740
  16 C :   -0.037946    0.002289
  17 H :    0.012888    0.000472
  18 H :    0.012896    0.000466
  19 C :    0.006122   -0.000182
  20 H :    0.017147    0.000155
  21 H :    0.017152    0.000155
  22 C :    0.039479   -0.018891
  23 H :    0.031878    0.010118
  24 H :    0.031879    0.010116
  25 C :   -0.034193    0.000878
  26 H :    0.016962    0.000180
  27 H :    0.016953    0.000180
  28 C :   -0.024604    0.000023
  29 H :    0.005188    0.000052
  30 H :    0.005193    0.000052
  31 C :    0.004047   -0.000081
  32 H :    0.017328    0.000024
  33 H :    0.017328    0.000024
  34 C :    0.133217   -0.047330
  35 H :   -0.031080   -0.004172
  36 H :    0.013361   -0.000204
  37 H :    0.012301   -0.000005
  38 C :   -0.254988    0.010728
  39 C :    0.031157   -0.011051
  40 C :    0.040862    0.005795
  41 C :    0.033600   -0.011687
  42 C :    0.040512    0.005785
  43 C :    0.028709   -0.011021
  44 H :   -0.027361    0.000535
  45 H :   -0.027449   -0.000234
  46 H :   -0.040554    0.000479
  47 H :   -0.039597    0.000455
  48 H :   -0.027381   -0.000234
Sum of atomic charges         :    0.0000000

LOEWDIN ATOMIC CHARGES AND SPIN POPULATIONS
-------------------------------------------
   0 C :   -0.052674    0.082202
   1 C :   -0.002719   -0.024256
   2 C :   -0.016086    0.016878
   3 C :   -0.041840    0.163607
   4 C :   -0.039950   -0.070931
   5 C :    0.009637    0.167917
   6 C :   -0.051923   -0.058601
   7 C :   -0.005248    0.175254
   8 C :   -0.007440   -0.064996
   9 H :    0.028182    0.000877
  10 H :    0.030752   -0.000463
  11 C :    0.013869    0.581445
  12 H :    0.023012    0.003346
  13 C :   -0.054741    0.005516
  14 H :    0.034297    0.024834
  15 H :    0.034280    0.024776
  16 C :   -0.045790    0.001171
  17 H :    0.025910    0.000301
  18 H :    0.025911    0.000297
  19 C :   -0.067651   -0.000043
  20 H :    0.025436    0.000249
  21 H :    0.025436    0.000250
  22 C :   -0.035593    0.002171
  23 H :    0.038798    0.007953
  24 H :    0.038799    0.007951
  25 C :   -0.043419    0.000163
  26 H :    0.024699    0.000059
  27 H :    0.024697    0.000059
  28 C :   -0.047232    0.000016
  29 H :    0.023767    0.000090
  30 H :    0.023768    0.000090
  31 C :   -0.067419   -0.000039
  32 H :    0.025339    0.000016
  33 H :    0.025340    0.000016
  34 C :   -0.022260   -0.033908
  35 H :    0.022058    0.000122
  36 H :    0.028300   -0.000112
  37 H :    0.027358   -0.000007
  38 C :   -0.053490    0.004907
  39 C :   -0.001114   -0.008507
  40 C :   -0.023570    0.003440
  41 C :   -0.021003   -0.009023
  42 C :   -0.023711    0.003435
  43 C :   -0.002023   -0.008492
  44 H :    0.028255   -0.000032
  45 H :    0.029396    0.000011
  46 H :    0.030098   -0.000009
  47 H :    0.030051   -0.000015
  48 H :    0.029453    0.000011

  Mayer bond orders larger than 0.100000
B(  0-C ,  1-C ) :   2.0936 B(  0-C , 35-H ) :   1.1203 B(  1-C ,  3-C ) :   0.9053
B(  2-C ,  6-C ) :   0.8772 B(  2-C , 34-C ) :   1.7564 B(  2-C , 38-C ) :  -0.1756
B(  3-C ,  4-C ) :   1.2770 B(  3-C ,  8-C ) :   1.3922 B(  4-C ,  5-C ) :   1.2888
B(  4-C , 11-C ) :   1.3674 B(  5-C ,  6-C ) :   1.4468 B(  5-C ,  9-H ) :   0.9197
B(  6-C ,  7-C ) :   1.3490 B(  7-C ,  8-C ) :   1.4157 B(  7-C , 22-C ) :   1.0953
B(  8-C , 10-H ) :   0.9200 B( 11-C , 12-H ) :   0.9016 B( 11-C , 13-C ) :   1.0838
B( 13-C , 14-H ) :   0.9117 B( 13-C , 15-H ) :   0.9117 B( 13-C , 16-C ) :   1.0716
B( 16-C , 17-H ) :   0.9437 B( 16-C , 18-H ) :   0.9437 B( 16-C , 19-C ) :   1.1065
B( 19-C , 20-H ) :   0.9653 B( 19-C , 21-H ) :   0.9653 B( 19-C , 36-H ) :   0.9609
B( 22-C , 23-H ) :   0.8961 B( 22-C , 24-H ) :   0.8961 B( 22-C , 25-C ) :   1.1040
B( 25-C , 26-H ) :   0.9293 B( 25-C , 27-H ) :   0.9293 B( 25-C , 28-C ) :   1.0749
B( 28-C , 29-H ) :   0.9409 B( 28-C , 30-H ) :   0.9409 B( 28-C , 31-C ) :   1.1062
B( 31-C , 32-H ) :   0.9662 B( 31-C , 33-H ) :   0.9662 B( 31-C , 37-H ) :   0.9616
B( 34-C , 38-C ) :   0.9293 B( 38-C , 39-C ) :   1.4425 B( 38-C , 43-C ) :   1.4394
B( 39-C , 40-C ) :   1.4698 B( 39-C , 46-H ) :   0.9401 B( 40-C , 41-C ) :   1.4445
B( 40-C , 48-H ) :   0.9380 B( 41-C , 42-C ) :   1.4438 B( 41-C , 44-H ) :   0.9433
B( 42-C , 43-C ) :   1.4701 B( 42-C , 45-H ) :   0.9380 B( 43-C , 47-H ) :   0.9406

FINAL SINGLE POINT ENERGY      -928.901884693120

DIPOLE MOMENT
-------------
                                X             Y             Z
Electronic contribution:      9.44772      -2.45053      -0.00586
Nuclear contribution   :     -9.07599       2.40924       0.00718
                        -----------------------------------------
Total Dipole Moment    :      0.37173      -0.04130       0.00131
                        -----------------------------------------
Magnitude (a.u.)       :      0.37402
Magnitude (Debye)      :      0.95068

Rotational constants in cm-1:     0.006644     0.004194     0.002580
Rotational constants in MHz :   199.181195   125.738880    77.339499

                             ****ORCA TERMINATED NORMALLY****
TOTAL RUN TIME: 0 days 0 hours 3 minutes 48 seconds 617 msec
