                         Program Version 5.0.4 -  RELEASE  -
|  1> ! B3LYP cc-pVDZ AUTOAUX
|  2> %pal nprocs 16 end
|  3> *XYZFile 0 2 opt.xyz
|  4> %EPRNMR
|  5>         GTENSOR   TRUE
|  6>         NUCLEI    = ALL H {SHIFT, AISO, ADIP, AORB}
|  7> END
|  8>
|  9>                          ****END OF INPUT****

CARTESIAN COORDINATES (ANGSTROEM)
---------------------------------
  C     -4.058780   -0.114027   -0.000729
  C     -2.837067   -0.037217    0.000458
  C      2.839456    0.025128    0.001303
  C     -1.417730    0.016651    0.000204
  C     -0.712128    1.278604   -0.003269
  C      0.709687    1.211983   -0.002475
  C      1.411298    0.003549    0.000975
  C      0.702255   -1.241266    0.003983
  C     -0.691408   -1.190779    0.003621
  H      1.285445    2.137757   -0.004762
  H     -1.264663   -2.117693    0.006030
  C     -1.396749    2.512534   -0.007530
  H     -2.489374    2.477379   -0.008222
  C     -0.740034    3.860790   -0.011243
  H     -0.071952    3.959921    0.869257
  H     -0.065383    3.951892   -0.887544
  C     -1.737595    5.026485   -0.020436
  H     -2.392913    4.932401   -0.905600
  H     -2.399942    4.940503    0.860321
  C     -1.059047    6.397666   -0.024026
  H     -0.415065    6.523869   -0.911556
  H     -0.422198    6.532067    0.867440
  C      1.476339   -2.542840    0.007434
  H      2.155053   -2.543120   -0.866126
  H      2.153685   -2.539371    0.882056
  C      0.658132   -3.836796    0.009521
  H     -0.005723   -3.860159    0.893279
  H     -0.004355   -3.863766   -0.875166
  C      1.539543   -5.091841    0.012796
  H      2.206455   -5.070185   -0.869111
  H      2.204866   -5.066716    0.895810
  C      0.733887   -6.393511    0.014637
  H      0.084970   -6.463882   -0.875410
  H      0.082960   -6.460115    0.903504
  C      4.061356    0.051700    0.002498
  H     -1.799216    7.213950   -0.030767
  H      1.392930   -7.276874    0.017252
  C      5.489033    0.088671    0.002622
  C      6.175837    1.322543    0.001416
  C      7.570008    1.354492    0.001416
  C      8.304589    0.163225    0.002633
  C      7.634082   -1.065321    0.003864
  C      6.240226   -1.107100    0.003878
  H      9.396716    0.192185    0.002617
  H      8.202215   -1.998703    0.004810
  H      5.600673    2.250353    0.000473
  H      5.715229   -2.064211    0.004815
  H      8.088008    2.316597    0.000461
  C     -5.481361   -0.217167   -0.000792
  C     -6.291506    0.940362   -0.001962
  C     -7.681432    0.829777   -0.001873
  C     -8.291180   -0.430157   -0.000632
  C     -7.498648   -1.583951    0.000528
  C     -6.108081   -1.483701    0.000446
  H     -9.380565   -0.512687   -0.000545
  H     -7.968746   -2.570377    0.001498
  H     -5.815246    1.922629   -0.002861
  H     -5.488129   -2.382218    0.001345
  H     -8.294683    1.734189   -0.002759

 Total Charge           Charge          ....    0
 Multiplicity           Mult            ....    2
 Number of Electrons    NEL             ....  209
 Basis Dimension        Dim             ....  565

ORBITAL ENERGIES
----------------
                 SPIN UP ORBITALS
  NO   OCC          E(Eh)            E(eV)
   0   1.0000     -10.215946      -277.9900
   1   1.0000     -10.214510      -277.9510
   2   1.0000     -10.212695      -277.9016
   3   1.0000     -10.210533      -277.8427
   4   1.0000     -10.200997      -277.5832
   5   1.0000     -10.196972      -277.4737
   6   1.0000     -10.196557      -277.4624
   7   1.0000     -10.196429      -277.4589
   8   1.0000     -10.195577      -277.4358
   9   1.0000     -10.195518      -277.4342
  10   1.0000     -10.195325      -277.4289
  11   1.0000     -10.195057      -277.4216
  12   1.0000     -10.194828      -277.4154
  13   1.0000     -10.194251      -277.3997
  14   1.0000     -10.193628      -277.3827
  15   1.0000     -10.193443      -277.3777
  16   1.0000     -10.193201      -277.3711
  17   1.0000     -10.191312      -277.3197
  18   1.0000     -10.188795      -277.2512
  19   1.0000     -10.188374      -277.2398
  20   1.0000     -10.187965      -277.2286
  21   1.0000     -10.187642      -277.2198
  22   1.0000     -10.186794      -277.1968
  23   1.0000     -10.186171      -277.1798
  24   1.0000     -10.185643      -277.1654
  25   1.0000     -10.183797      -277.1152
  26   1.0000     -10.181687      -277.0578
  27   1.0000     -10.181270      -277.0464
  28   1.0000     -10.177034      -276.9312
  29   1.0000     -10.175577      -276.8915
  30   1.0000      -0.872378       -23.7386
  31   1.0000      -0.862708       -23.4755
  32   1.0000      -0.861537       -23.4436
  33   1.0000      -0.819143       -22.2900
  34   1.0000      -0.798610       -21.7313
  35   1.0000      -0.796129       -21.6638
  36   1.0000      -0.781777       -21.2732
  37   1.0000      -0.772769       -21.0281
  38   1.0000      -0.765773       -20.8377
  39   1.0000      -0.750433       -20.4203
  40   1.0000      -0.749369       -20.3914
  41   1.0000      -0.737889       -20.0790
  42   1.0000      -0.726098       -19.7581
  43   1.0000      -0.709292       -19.3008
  44   1.0000      -0.696733       -18.9591
  45   1.0000      -0.656047       -17.8519
  46   1.0000      -0.645904       -17.5759
  47   1.0000      -0.623103       -16.9555
  48   1.0000      -0.613069       -16.6825
  49   1.0000      -0.608757       -16.5651
  50   1.0000      -0.608361       -16.5543
  51   1.0000      -0.607213       -16.5231
  52   1.0000      -0.590185       -16.0598
  53   1.0000      -0.579556       -15.7705
  54   1.0000      -0.560593       -15.2545
  55   1.0000      -0.540185       -14.6992
  56   1.0000      -0.534504       -14.5446
  57   1.0000      -0.506647       -13.7866
  58   1.0000      -0.503574       -13.7030
  59   1.0000      -0.479837       -13.0570
  60   1.0000      -0.478725       -13.0268
  61   1.0000      -0.474531       -12.9126
  62   1.0000      -0.470296       -12.7974
  63   1.0000      -0.461948       -12.5703
  64   1.0000      -0.457227       -12.4418
  65   1.0000      -0.455909       -12.4059
  66   1.0000      -0.436558       -11.8793
  67   1.0000      -0.434764       -11.8305
  68   1.0000      -0.430454       -11.7133
  69   1.0000      -0.428202       -11.6520
  70   1.0000      -0.425620       -11.5817
  71   1.0000      -0.423761       -11.5311
  72   1.0000      -0.422552       -11.4982
  73   1.0000      -0.421401       -11.4669
  74   1.0000      -0.411191       -11.1891
  75   1.0000      -0.397964       -10.8291
  76   1.0000      -0.397442       -10.8149
  77   1.0000      -0.383826       -10.4444
  78   1.0000      -0.381146       -10.3715
  79   1.0000      -0.377586       -10.2746
  80   1.0000      -0.374524       -10.1913
  81   1.0000      -0.364646        -9.9225
  82   1.0000      -0.361421        -9.8348
  83   1.0000      -0.359488        -9.7822
  84   1.0000      -0.355261        -9.6671
  85   1.0000      -0.353245        -9.6123
  86   1.0000      -0.349992        -9.5238
  87   1.0000      -0.348797        -9.4913
  88   1.0000      -0.339736        -9.2447
  89   1.0000      -0.332258        -9.0412
  90   1.0000      -0.331929        -9.0323
  91   1.0000      -0.330679        -8.9982
  92   1.0000      -0.327289        -8.9060
  93   1.0000      -0.323466        -8.8019
  94   1.0000      -0.321622        -8.7518
  95   1.0000      -0.305615        -8.3162
  96   1.0000      -0.278124        -7.5681
  97   1.0000      -0.271900        -7.3988
  98   1.0000      -0.267720        -7.2850
  99   1.0000      -0.266198        -7.2436
 100   1.0000      -0.258091        -7.0230
 101   1.0000      -0.257549        -7.0083
 102   1.0000      -0.235949        -6.4205
 103   1.0000      -0.208131        -5.6635
 104   1.0000      -0.169516        -4.6128
 105   0.0000      -0.063770        -1.7353
 106   0.0000      -0.026976        -0.7341
 107   0.0000      -0.009781        -0.2662
 108   0.0000      -0.008959        -0.2438
 109   0.0000       0.005713         0.1554

                 SPIN DOWN ORBITALS
  NO   OCC          E(Eh)            E(eV)
   0   1.0000     -10.215788      -277.9857
   1   1.0000     -10.214864      -277.9606
   2   1.0000     -10.212134      -277.8863
   3   1.0000     -10.209339      -277.8102
   4   1.0000     -10.199428      -277.5406
   5   1.0000     -10.197618      -277.4913
   6   1.0000     -10.196713      -277.4667
   7   1.0000     -10.196585      -277.4632
   8   1.0000     -10.195621      -277.4370
   9   1.0000     -10.195199      -277.4255
  10   1.0000     -10.194990      -277.4198
  11   1.0000     -10.194951      -277.4187
  12   1.0000     -10.194815      -277.4150
  13   1.0000     -10.194068      -277.3947
  14   1.0000     -10.193790      -277.3871
  15   1.0000     -10.193409      -277.3768
  16   1.0000     -10.190084      -277.2863
  17   1.0000     -10.189953      -277.2827
  18   1.0000     -10.188992      -277.2566
  19   1.0000     -10.188317      -277.2382
  20   1.0000     -10.187710      -277.2217
  21   1.0000     -10.186777      -277.1963
  22   1.0000     -10.186372      -277.1853
  23   1.0000     -10.185448      -277.1601
  24   1.0000     -10.183757      -277.1141
  25   1.0000     -10.181687      -277.0578
  26   1.0000     -10.181436      -277.0510
  27   1.0000     -10.181266      -277.0463
  28   1.0000     -10.177042      -276.9314
  29   1.0000     -10.175579      -276.8916
  30   1.0000      -0.869146       -23.6507
  31   1.0000      -0.862782       -23.4775
  32   1.0000      -0.861063       -23.4307
  33   1.0000      -0.814378       -22.1603
  34   1.0000      -0.796769       -21.6812
  35   1.0000      -0.794294       -21.6138
  36   1.0000      -0.781411       -21.2633
  37   1.0000      -0.771891       -21.0042
  38   1.0000      -0.763782       -20.7836
  39   1.0000      -0.750583       -20.4244
  40   1.0000      -0.749010       -20.3816
  41   1.0000      -0.735775       -20.0214
  42   1.0000      -0.723587       -19.6898
  43   1.0000      -0.708048       -19.2670
  44   1.0000      -0.694624       -18.9017
  45   1.0000      -0.653097       -17.7717
  46   1.0000      -0.644558       -17.5393
  47   1.0000      -0.621654       -16.9161
  48   1.0000      -0.609045       -16.5730
  49   1.0000      -0.608602       -16.5609
  50   1.0000      -0.607706       -16.5365
  51   1.0000      -0.606906       -16.5147
  52   1.0000      -0.589320       -16.0362
  53   1.0000      -0.577955       -15.7270
  54   1.0000      -0.557696       -15.1757
  55   1.0000      -0.539789       -14.6884
  56   1.0000      -0.533951       -14.5296
  57   1.0000      -0.503375       -13.6975
  58   1.0000      -0.502108       -13.6630
  59   1.0000      -0.479574       -13.0499
  60   1.0000      -0.477578       -12.9956
  61   1.0000      -0.473759       -12.8916
  62   1.0000      -0.469477       -12.7751
  63   1.0000      -0.458577       -12.4785
  64   1.0000      -0.457289       -12.4435
  65   1.0000      -0.455702       -12.4003
  66   1.0000      -0.436120       -11.8674
  67   1.0000      -0.434383       -11.8202
  68   1.0000      -0.428682       -11.6650
  69   1.0000      -0.427155       -11.6235
  70   1.0000      -0.424524       -11.5519
  71   1.0000      -0.423785       -11.5318
  72   1.0000      -0.422448       -11.4954
  73   1.0000      -0.418867       -11.3979
  74   1.0000      -0.410675       -11.1750
  75   1.0000      -0.396359       -10.7855
  76   1.0000      -0.390576       -10.6281
  77   1.0000      -0.382537       -10.4094
  78   1.0000      -0.379999       -10.3403
  79   1.0000      -0.375286       -10.2121
  80   1.0000      -0.371925       -10.1206
  81   1.0000      -0.363547        -9.8926
  82   1.0000      -0.361224        -9.8294
  83   1.0000      -0.359276        -9.7764
  84   1.0000      -0.354505        -9.6466
  85   1.0000      -0.350318        -9.5326
  86   1.0000      -0.350028        -9.5248
  87   1.0000      -0.348627        -9.4866
  88   1.0000      -0.337554        -9.1853
  89   1.0000      -0.331714        -9.0264
  90   1.0000      -0.330603        -8.9962
  91   1.0000      -0.328484        -8.9385
  92   1.0000      -0.326930        -8.8962
  93   1.0000      -0.322647        -8.7797
  94   1.0000      -0.321246        -8.7415
  95   1.0000      -0.303320        -8.2537
  96   1.0000      -0.274305        -7.4642
  97   1.0000      -0.267587        -7.2814
  98   1.0000      -0.265760        -7.2317
  99   1.0000      -0.258516        -7.0346
 100   1.0000      -0.258243        -7.0271
 101   1.0000      -0.256536        -6.9807
 102   1.0000      -0.234159        -6.3718
 103   1.0000      -0.200725        -5.4620
 104   0.0000      -0.084788        -2.3072
 105   0.0000      -0.055266        -1.5039
 106   0.0000      -0.025381        -0.6906
 107   0.0000      -0.010149        -0.2762
 108   0.0000      -0.008087        -0.2201

MULLIKEN ATOMIC CHARGES AND SPIN POPULATIONS
--------------------------------------------
   0 C :    0.140088    0.099384
   1 C :    0.281232   -0.066052
   2 C :    0.270206    0.031516
   3 C :   -0.178469    0.222980
   4 C :    0.072438   -0.169403
   5 C :   -0.028712    0.221766
   6 C :   -0.142828   -0.106682
   7 C :   -0.086580    0.232267
   8 C :    0.008132   -0.117959
   9 H :   -0.053890   -0.009240
  10 H :   -0.055213    0.004286
  11 C :   -0.100671    0.697166
  12 H :   -0.026258   -0.030312
  13 C :    0.034641   -0.047826
  14 H :    0.029104    0.031312
  15 H :    0.029157    0.031120
  16 C :   -0.039296    0.002264
  17 H :    0.012421    0.000479
  18 H :    0.012409    0.000461
  19 C :    0.006018   -0.000179
  20 H :    0.017598    0.000152
  21 H :    0.017615    0.000153
  22 C :    0.039743   -0.018522
  23 H :    0.031905    0.009882
  24 H :    0.031908    0.009897
  25 C :   -0.034192    0.000862
  26 H :    0.016800    0.000168
  27 H :    0.016752    0.000170
  28 C :   -0.024807    0.000025
  29 H :    0.005438    0.000052
  30 H :    0.005447    0.000052
  31 C :    0.003246   -0.000080
  32 H :    0.017319    0.000023
  33 H :    0.017308    0.000023
  34 C :    0.126641   -0.047353
  35 H :    0.013303   -0.000200
  36 H :    0.012546   -0.000005
  37 C :   -0.254627    0.010488
  38 C :    0.030070   -0.010859
  39 C :    0.040227    0.005546
  40 C :    0.032785   -0.011530
  41 C :    0.039800    0.005539
  42 C :    0.028045   -0.010836
  43 H :   -0.027088    0.000518
  44 H :   -0.027115   -0.000213
  45 H :   -0.040304    0.000459
  46 H :   -0.039347    0.000435
  47 H :   -0.027041   -0.000213
  48 C :   -0.258196   -0.023190
  49 C :    0.024953    0.026157
  50 C :    0.039840   -0.013727
  51 C :    0.032424    0.028718
  52 C :    0.040446   -0.013714
  53 C :    0.029993    0.026239
  54 H :   -0.027703   -0.001313
  55 H :   -0.027579    0.000539
  56 H :   -0.039193   -0.001086
  57 H :   -0.040983   -0.001145
  58 H :   -0.027910    0.000540
Sum of atomic charges         :   -0.0000000

LOEWDIN ATOMIC CHARGES AND SPIN POPULATIONS
-------------------------------------------
   0 C :   -0.022907    0.072913
   1 C :   -0.017084   -0.029609
   2 C :   -0.016084    0.016595
   3 C :   -0.039508    0.159537
   4 C :   -0.040037   -0.072059
   5 C :    0.009357    0.167359
   6 C :   -0.052944   -0.058999
   7 C :   -0.005792    0.171362
   8 C :   -0.008668   -0.064459
   9 H :    0.028055    0.000881
  10 H :    0.029462   -0.000458
  11 C :    0.011951    0.571655
  12 H :    0.021225    0.003377
  13 C :   -0.054555    0.005363
  14 H :    0.034353    0.024434
  15 H :    0.034311    0.024272
  16 C :   -0.046132    0.001164
  17 H :    0.025558    0.000304
  18 H :    0.025540    0.000294
  19 C :   -0.067734   -0.000043
  20 H :    0.025591    0.000246
  21 H :    0.025589    0.000247
  22 C :   -0.035563    0.002143
  23 H :    0.038774    0.007774
  24 H :    0.038784    0.007786
  25 C :   -0.043481    0.000151
  26 H :    0.024546    0.000053
  27 H :    0.024550    0.000053
  28 C :   -0.047282    0.000017
  29 H :    0.023805    0.000088
  30 H :    0.023807    0.000088
  31 C :   -0.067645   -0.000038
  32 H :    0.025255    0.000016
  33 H :    0.025253    0.000016
  34 C :   -0.023132   -0.034027
  35 H :    0.028212   -0.000110
  36 H :    0.027380   -0.000007
  37 C :   -0.053366    0.004755
  38 C :   -0.001357   -0.008398
  39 C :   -0.023829    0.003276
  40 C :   -0.021496   -0.008943
  41 C :   -0.023968    0.003272
  42 C :   -0.002335   -0.008387
  43 H :    0.028203   -0.000038
  44 H :    0.029373    0.000017
  45 H :    0.030076   -0.000015
  46 H :    0.030012   -0.000020
  47 H :    0.029431    0.000017
  48 C :   -0.053300   -0.010519
  49 C :   -0.003185    0.020207
  50 C :   -0.024294   -0.008083
  51 C :   -0.022426    0.022215
  52 C :   -0.024185   -0.008064
  53 C :   -0.001775    0.020266
  54 H :    0.027888    0.000088
  55 H :    0.029232   -0.000035
  56 H :    0.029484    0.000026
  57 H :    0.029824    0.000022
  58 H :    0.029183   -0.000036

  Mayer bond orders larger than 0.100000
B(  0-C ,  1-C ) :   1.7112 B(  0-C , 48-C ) :   0.9339 B(  1-C ,  3-C ) :   0.8748
B(  1-C , 48-C ) :  -0.1834 B(  2-C ,  6-C ) :   0.8755 B(  2-C , 34-C ) :   1.7524
B(  2-C , 37-C ) :  -0.1772 B(  3-C ,  4-C ) :   1.2779 B(  3-C ,  8-C ) :   1.3995
B(  4-C ,  5-C ) :   1.2899 B(  4-C , 11-C ) :   1.3813 B(  5-C ,  6-C ) :   1.4491
B(  5-C ,  9-H ) :   0.9174 B(  6-C ,  7-C ) :   1.3431 B(  7-C ,  8-C ) :   1.4281
B(  7-C , 22-C ) :   1.0957 B(  8-C , 10-H ) :   0.9197 B( 11-C , 12-H ) :   0.8983
B( 11-C , 13-C ) :   1.0842 B( 13-C , 14-H ) :   0.9115 B( 13-C , 15-H ) :   0.9114
B( 13-C , 16-C ) :   1.0715 B( 16-C , 17-H ) :   0.9438 B( 16-C , 18-H ) :   0.9437
B( 16-C , 19-C ) :   1.1066 B( 19-C , 20-H ) :   0.9653 B( 19-C , 21-H ) :   0.9653
B( 19-C , 35-H ) :   0.9608 B( 22-C , 23-H ) :   0.8956 B( 22-C , 24-H ) :   0.8956
B( 22-C , 25-C ) :   1.1046 B( 25-C , 26-H ) :   0.9292 B( 25-C , 27-H ) :   0.9292
B( 25-C , 28-C ) :   1.0747 B( 28-C , 29-H ) :   0.9410 B( 28-C , 30-H ) :   0.9410
B( 28-C , 31-C ) :   1.1062 B( 31-C , 32-H ) :   0.9662 B( 31-C , 33-H ) :   0.9662
B( 31-C , 36-H ) :   0.9617 B( 34-C , 37-C ) :   0.9315 B( 37-C , 38-C ) :   1.4428
B( 37-C , 42-C ) :   1.4388 B( 38-C , 39-C ) :   1.4704 B( 38-C , 45-H ) :   0.9400
B( 39-C , 40-C ) :   1.4445 B( 39-C , 47-H ) :   0.9379 B( 40-C , 41-C ) :   1.4441
B( 40-C , 43-H ) :   0.9432 B( 41-C , 42-C ) :   1.4705 B( 41-C , 44-H ) :   0.9379
B( 42-C , 46-H ) :   0.9404 B( 48-C , 49-C ) :   1.4366 B( 48-C , 53-C ) :   1.4391
B( 49-C , 50-C ) :   1.4716 B( 49-C , 56-H ) :   0.9404 B( 50-C , 51-C ) :   1.4428
B( 50-C , 58-H ) :   0.9378 B( 51-C , 52-C ) :   1.4427 B( 51-C , 54-H ) :   0.9431
B( 52-C , 53-C ) :   1.4726 B( 52-C , 55-H ) :   0.9377 B( 53-C , 57-H ) :   0.9397

FINAL SINGLE POINT ENERGY     -1159.835762375789

DIPOLE MOMENT
-------------
                                X             Y             Z
Electronic contribution:     -0.50641       2.18342       0.02450
Nuclear contribution   :      0.63594      -2.16475      -0.02495
                        -----------------------------------------
Total Dipole Moment    :      0.12953       0.01867      -0.00045
                        -----------------------------------------
Magnitude (a.u.)       :      0.13087
Magnitude (Debye)      :      0.33265

Rotational constants in cm-1:     0.005965     0.001994     0.001497
Rotational constants in MHz :   178.831081    59.768381    44.884172

CHEMICAL SHIELDING SUMMARY (ppm)  --  Orbital contribution
----------------------------------------------------------

  Nucleus  Element    Isotropic     Anisotropy
  -------  -------  ------------   ------------
      9       H           24.419         11.711
     10       H           24.470         12.636
     12       H           25.258         11.501
     14       H           28.932          4.350
     15       H           28.931          4.356
     17       H           29.623          6.538
     18       H           29.622          6.557
     20       H           30.288          7.860
     21       H           30.287          7.858
     23       H           28.652          5.827
     24       H           28.652          5.817
     26       H           29.786          4.823
     27       H           29.787          4.818
     29       H           29.845          6.301
     30       H           29.845          6.300
     32       H           30.278          7.854
     33       H           30.278          7.854
     35       H           30.066         10.123
     36       H           30.077         10.326
     43       H           24.246          4.425
     44       H           24.203          5.490
     45       H           24.018          7.774
     46       H           24.009          7.813
     47       H           24.193          5.181
     54       H           24.276          4.402
     55       H           24.204          5.237
     56       H           24.042          7.637
     57       H           24.031          7.705
     58       H           24.210          5.378

                             ****ORCA TERMINATED NORMALLY****
TOTAL RUN TIME: 0 days 2 hours 52 minutes 13 seconds 601 msec
