                         Program Version 5.0.4 -  RELEASE  -
|  1> ! B3LYP cc-pVDZ AUTOAUX
|  2> %pal nprocs 16 end
|  3> *XYZFile 0 2 opt.xyz
|  4> %EPRNMR
|  5>         GTENSOR   TRUE
|  6>         NUCLEI    = ALL H {SHIFT, AISO, ADIP, AORB}
|  7>         ORI       GIAO
|  8> END
|  9>
| 10>                          ****END OF INPUT****

CARTESIAN COORDINATES (ANGSTROEM)
---------------------------------
  C     -4.058780   -0.114027   -0.000729
  C     -2.837067   -0.037217    0.000458
  C      2.839456    0.025128    0.001303
  C     -1.417730    0.016651    0.000204
  C     -0.712128    1.278604   -0.003269
  C      0.709687    1.211983   -0.002475
  C      1.411298    0.003549    0.000975
  C      0.702255   -1.241266    0.003983
  C     -0.691408   -1.190779    0.003621
  H      1.285445    2.137757   -0.004762
  H     -1.264663   -2.117693    0.006030
  C     -1.396749    2.512534   -0.007530
  H     -2.489374    2.477379   -0.008222
  C     -0.740034    3.860790   -0.011243
  H     -0.071952    3.959921    0.869257
  H     -0.065383    3.951892   -0.887544
  C     -1.737595    5.026485   -0.020436
  H     -2.392913    4.932401   -0.905600
  H     -2.399942    4.940503    0.860321
  C     -1.059047    6.397666   -0.024026
  H     -0.415065    6.523869   -0.911556
  H     -0.422198    6.532067    0.867440
  C      1.476339   -2.542840    0.007434
  H      2.155053   -2.543120   -0.866126
  H      2.153685   -2.539371    0.882056
  C      0.658132   -3.836796    0.009521
  H     -0.005723   -3.860159    0.893279
  H     -0.004355   -3.863766   -0.875166
  C      1.539543   -5.091841    0.012796
  H      2.206455   -5.070185   -0.869111
  H      2.204866   -5.066716    0.895810
  C      0.733887   -6.393511    0.014637
  H      0.084970   -6.463882   -0.875410
  H      0.082960   -6.460115    0.903504
  C      4.061356    0.051700    0.002498
  H     -1.799216    7.213950   -0.030767
  H      1.392930   -7.276874    0.017252
  C      5.489033    0.088671    0.002622
  C      6.175837    1.322543    0.001416
  C      7.570008    1.354492    0.001416
  C      8.304589    0.163225    0.002633
  C      7.634082   -1.065321    0.003864
  C      6.240226   -1.107100    0.003878
  H      9.396716    0.192185    0.002617
  H      8.202215   -1.998703    0.004810
  H      5.600673    2.250353    0.000473
  H      5.715229   -2.064211    0.004815
  H      8.088008    2.316597    0.000461
  C     -5.481361   -0.217167   -0.000792
  C     -6.291506    0.940362   -0.001962
  C     -7.681432    0.829777   -0.001873
  C     -8.291180   -0.430157   -0.000632
  C     -7.498648   -1.583951    0.000528
  C     -6.108081   -1.483701    0.000446
  H     -9.380565   -0.512687   -0.000545
  H     -7.968746   -2.570377    0.001498
  H     -5.815246    1.922629   -0.002861
  H     -5.488129   -2.382218    0.001345
  H     -8.294683    1.734189   -0.002759

 Total Charge           Charge          ....    0
 Multiplicity           Mult            ....    2
 Number of Electrons    NEL             ....  209
 Basis Dimension        Dim             ....  565

ORBITAL ENERGIES
----------------
                 SPIN UP ORBITALS
  NO   OCC          E(Eh)            E(eV)
   0   1.0000     -10.215983      -277.9910
   1   1.0000     -10.214485      -277.9503
   2   1.0000     -10.212666      -277.9008
   3   1.0000     -10.210551      -277.8432
   4   1.0000     -10.201002      -277.5834
   5   1.0000     -10.196942      -277.4729
   6   1.0000     -10.196615      -277.4640
   7   1.0000     -10.196485      -277.4605
   8   1.0000     -10.195531      -277.4345
   9   1.0000     -10.195486      -277.4333
  10   1.0000     -10.195284      -277.4278
  11   1.0000     -10.195043      -277.4212
  12   1.0000     -10.194805      -277.4147
  13   1.0000     -10.194281      -277.4005
  14   1.0000     -10.193643      -277.3831
  15   1.0000     -10.193463      -277.3782
  16   1.0000     -10.193138      -277.3694
  17   1.0000     -10.191312      -277.3197
  18   1.0000     -10.188805      -277.2515
  19   1.0000     -10.188377      -277.2398
  20   1.0000     -10.187961      -277.2285
  21   1.0000     -10.187643      -277.2199
  22   1.0000     -10.186806      -277.1971
  23   1.0000     -10.186166      -277.1797
  24   1.0000     -10.185628      -277.1650
  25   1.0000     -10.183799      -277.1153
  26   1.0000     -10.181677      -277.0575
  27   1.0000     -10.181253      -277.0460
  28   1.0000     -10.177026      -276.9309
  29   1.0000     -10.175562      -276.8911
  30   1.0000      -0.872366       -23.7383
  31   1.0000      -0.862723       -23.4759
  32   1.0000      -0.861529       -23.4434
  33   1.0000      -0.819138       -22.2899
  34   1.0000      -0.798604       -21.7311
  35   1.0000      -0.796125       -21.6637
  36   1.0000      -0.781779       -21.2733
  37   1.0000      -0.772768       -21.0281
  38   1.0000      -0.765765       -20.8375
  39   1.0000      -0.750447       -20.4207
  40   1.0000      -0.749361       -20.3911
  41   1.0000      -0.737886       -20.0789
  42   1.0000      -0.726095       -19.7580
  43   1.0000      -0.709289       -19.3007
  44   1.0000      -0.696727       -18.9589
  45   1.0000      -0.656041       -17.8518
  46   1.0000      -0.645900       -17.5758
  47   1.0000      -0.623104       -16.9555
  48   1.0000      -0.613066       -16.6824
  49   1.0000      -0.608759       -16.5652
  50   1.0000      -0.608366       -16.5545
  51   1.0000      -0.607209       -16.5230
  52   1.0000      -0.590181       -16.0596
  53   1.0000      -0.579553       -15.7704
  54   1.0000      -0.560586       -15.2543
  55   1.0000      -0.540188       -14.6993
  56   1.0000      -0.534505       -14.5446
  57   1.0000      -0.506641       -13.7864
  58   1.0000      -0.503568       -13.7028
  59   1.0000      -0.479838       -13.0570
  60   1.0000      -0.478720       -13.0266
  61   1.0000      -0.474529       -12.9126
  62   1.0000      -0.470292       -12.7973
  63   1.0000      -0.461947       -12.5702
  64   1.0000      -0.457237       -12.4420
  65   1.0000      -0.455904       -12.4058
  66   1.0000      -0.436561       -11.8794
  67   1.0000      -0.434762       -11.8305
  68   1.0000      -0.430451       -11.7132
  69   1.0000      -0.428193       -11.6517
  70   1.0000      -0.425615       -11.5816
  71   1.0000      -0.423772       -11.5314
  72   1.0000      -0.422546       -11.4981
  73   1.0000      -0.421398       -11.4668
  74   1.0000      -0.411184       -11.1889
  75   1.0000      -0.397958       -10.8290
  76   1.0000      -0.397435       -10.8148
  77   1.0000      -0.383824       -10.4444
  78   1.0000      -0.381149       -10.3716
  79   1.0000      -0.377580       -10.2745
  80   1.0000      -0.374520       -10.1912
  81   1.0000      -0.364642        -9.9224
  82   1.0000      -0.361421        -9.8348
  83   1.0000      -0.359489        -9.7822
  84   1.0000      -0.355256        -9.6670
  85   1.0000      -0.353239        -9.6121
  86   1.0000      -0.349999        -9.5239
  87   1.0000      -0.348795        -9.4912
  88   1.0000      -0.339731        -9.2446
  89   1.0000      -0.332255        -9.0411
  90   1.0000      -0.331926        -9.0322
  91   1.0000      -0.330677        -8.9982
  92   1.0000      -0.327284        -8.9059
  93   1.0000      -0.323459        -8.8018
  94   1.0000      -0.321619        -8.7517
  95   1.0000      -0.305613        -8.3162
  96   1.0000      -0.278123        -7.5681
  97   1.0000      -0.271892        -7.3986
  98   1.0000      -0.267730        -7.2853
  99   1.0000      -0.266188        -7.2433
 100   1.0000      -0.258104        -7.0234
 101   1.0000      -0.257542        -7.0081
 102   1.0000      -0.235948        -6.4205
 103   1.0000      -0.208130        -5.6635
 104   1.0000      -0.169512        -4.6126
 105   0.0000      -0.063770        -1.7353
 106   0.0000      -0.026975        -0.7340
 107   0.0000      -0.009793        -0.2665
 108   0.0000      -0.008954        -0.2436
 109   0.0000       0.005717         0.1556

                 SPIN DOWN ORBITALS
  NO   OCC          E(Eh)            E(eV)
   0   1.0000     -10.215828      -277.9868
   1   1.0000     -10.214837      -277.9598
   2   1.0000     -10.212150      -277.8867
   3   1.0000     -10.209312      -277.8095
   4   1.0000     -10.199399      -277.5398
   5   1.0000     -10.197627      -277.4915
   6   1.0000     -10.196769      -277.4682
   7   1.0000     -10.196639      -277.4647
   8   1.0000     -10.195583      -277.4359
   9   1.0000     -10.195156      -277.4243
  10   1.0000     -10.194978      -277.4195
  11   1.0000     -10.194913      -277.4177
  12   1.0000     -10.194796      -277.4145
  13   1.0000     -10.194089      -277.3953
  14   1.0000     -10.193804      -277.3875
  15   1.0000     -10.193436      -277.3775
  16   1.0000     -10.190021      -277.2846
  17   1.0000     -10.189955      -277.2828
  18   1.0000     -10.189007      -277.2570
  19   1.0000     -10.188319      -277.2383
  20   1.0000     -10.187695      -277.2213
  21   1.0000     -10.186783      -277.1965
  22   1.0000     -10.186367      -277.1851
  23   1.0000     -10.185445      -277.1601
  24   1.0000     -10.183760      -277.1142
  25   1.0000     -10.181678      -277.0575
  26   1.0000     -10.181432      -277.0508
  27   1.0000     -10.181249      -277.0459
  28   1.0000     -10.177033      -276.9312
  29   1.0000     -10.175564      -276.8912
  30   1.0000      -0.869136       -23.6504
  31   1.0000      -0.862796       -23.4779
  32   1.0000      -0.861056       -23.4305
  33   1.0000      -0.814372       -22.1602
  34   1.0000      -0.796765       -21.6811
  35   1.0000      -0.794290       -21.6137
  36   1.0000      -0.781413       -21.2633
  37   1.0000      -0.771891       -21.0042
  38   1.0000      -0.763773       -20.7833
  39   1.0000      -0.750597       -20.4248
  40   1.0000      -0.749003       -20.3814
  41   1.0000      -0.735772       -20.0214
  42   1.0000      -0.723583       -19.6897
  43   1.0000      -0.708045       -19.2669
  44   1.0000      -0.694619       -18.9015
  45   1.0000      -0.653091       -17.7715
  46   1.0000      -0.644554       -17.5392
  47   1.0000      -0.621656       -16.9161
  48   1.0000      -0.609041       -16.5728
  49   1.0000      -0.608610       -16.5611
  50   1.0000      -0.607703       -16.5364
  51   1.0000      -0.606902       -16.5146
  52   1.0000      -0.589316       -16.0361
  53   1.0000      -0.577951       -15.7269
  54   1.0000      -0.557689       -15.1755
  55   1.0000      -0.539791       -14.6885
  56   1.0000      -0.533953       -14.5296
  57   1.0000      -0.503370       -13.6974
  58   1.0000      -0.502100       -13.6628
  59   1.0000      -0.479576       -13.0499
  60   1.0000      -0.477572       -12.9954
  61   1.0000      -0.473756       -12.8916
  62   1.0000      -0.469474       -12.7750
  63   1.0000      -0.458575       -12.4785
  64   1.0000      -0.457299       -12.4437
  65   1.0000      -0.455698       -12.4002
  66   1.0000      -0.436125       -11.8676
  67   1.0000      -0.434380       -11.8201
  68   1.0000      -0.428676       -11.6649
  69   1.0000      -0.427146       -11.6232
  70   1.0000      -0.424519       -11.5518
  71   1.0000      -0.423795       -11.5321
  72   1.0000      -0.422443       -11.4952
  73   1.0000      -0.418865       -11.3979
  74   1.0000      -0.410668       -11.1749
  75   1.0000      -0.396352       -10.7853
  76   1.0000      -0.390569       -10.6279
  77   1.0000      -0.382546       -10.4096
  78   1.0000      -0.379994       -10.3402
  79   1.0000      -0.375280       -10.2119
  80   1.0000      -0.371922       -10.1205
  81   1.0000      -0.363543        -9.8925
  82   1.0000      -0.361224        -9.8294
  83   1.0000      -0.359278        -9.7764
  84   1.0000      -0.354500        -9.6464
  85   1.0000      -0.350313        -9.5325
  86   1.0000      -0.350035        -9.5249
  87   1.0000      -0.348625        -9.4866
  88   1.0000      -0.337548        -9.1852
  89   1.0000      -0.331712        -9.0263
  90   1.0000      -0.330602        -8.9961
  91   1.0000      -0.328482        -8.9384
  92   1.0000      -0.326925        -8.8961
  93   1.0000      -0.322641        -8.7795
  94   1.0000      -0.321243        -8.7415
  95   1.0000      -0.303319        -8.2537
  96   1.0000      -0.274305        -7.4642
  97   1.0000      -0.267596        -7.2817
  98   1.0000      -0.265751        -7.2314
  99   1.0000      -0.258527        -7.0349
 100   1.0000      -0.258232        -7.0269
 101   1.0000      -0.256530        -6.9805
 102   1.0000      -0.234160        -6.3718
 103   1.0000      -0.200722        -5.4619
 104   0.0000      -0.084778        -2.3069
 105   0.0000      -0.055259        -1.5037
 106   0.0000      -0.025383        -0.6907
 107   0.0000      -0.010160        -0.2765
 108   0.0000      -0.008082        -0.2199

MULLIKEN ATOMIC CHARGES AND SPIN POPULATIONS
--------------------------------------------
   0 C :    0.140046    0.099300
   1 C :    0.281283   -0.065937
   2 C :    0.270265    0.031322
   3 C :   -0.178433    0.222866
   4 C :    0.072452   -0.169383
   5 C :   -0.028621    0.221763
   6 C :   -0.142897   -0.106592
   7 C :   -0.086598    0.232190
   8 C :    0.008122   -0.117912
   9 H :   -0.053907   -0.009239
  10 H :   -0.055211    0.004285
  11 C :   -0.100684    0.697218
  12 H :   -0.026258   -0.030320
  13 C :    0.034636   -0.047839
  14 H :    0.029105    0.031315
  15 H :    0.029157    0.031123
  16 C :   -0.039302    0.002265
  17 H :    0.012422    0.000479
  18 H :    0.012410    0.000460
  19 C :    0.006027   -0.000179
  20 H :    0.017597    0.000152
  21 H :    0.017613    0.000153
  22 C :    0.039739   -0.018504
  23 H :    0.031902    0.009880
  24 H :    0.031905    0.009895
  25 C :   -0.034173    0.000860
  26 H :    0.016795    0.000168
  27 H :    0.016748    0.000170
  28 C :   -0.024803    0.000025
  29 H :    0.005434    0.000052
  30 H :    0.005443    0.000052
  31 C :    0.003260   -0.000080
  32 H :    0.017316    0.000023
  33 H :    0.017304    0.000023
  34 C :    0.126602   -0.047199
  35 H :    0.013301   -0.000200
  36 H :    0.012541   -0.000005
  37 C :   -0.254638    0.010412
  38 C :    0.029999   -0.010798
  39 C :    0.040263    0.005486
  40 C :    0.032850   -0.011470
  41 C :    0.039835    0.005480
  42 C :    0.027972   -0.010775
  43 H :   -0.027097    0.000511
  44 H :   -0.027117   -0.000208
  45 H :   -0.040288    0.000453
  46 H :   -0.039332    0.000429
  47 H :   -0.027043   -0.000208
  48 C :   -0.258219   -0.023139
  49 C :    0.025014    0.026125
  50 C :    0.039808   -0.013695
  51 C :    0.032375    0.028683
  52 C :    0.040410   -0.013682
  53 C :    0.030049    0.026205
  54 H :   -0.027696   -0.001309
  55 H :   -0.027576    0.000537
  56 H :   -0.039205   -0.001083
  57 H :   -0.040994   -0.001142
  58 H :   -0.027907    0.000538
Sum of atomic charges         :   -0.0000000

LOEWDIN ATOMIC CHARGES AND SPIN POPULATIONS
-------------------------------------------
   0 C :   -0.022927    0.072877
   1 C :   -0.017071   -0.029577
   2 C :   -0.016058    0.016535
   3 C :   -0.039487    0.159505
   4 C :   -0.040021   -0.072060
   5 C :    0.009416    0.167364
   6 C :   -0.052974   -0.058987
   7 C :   -0.005804    0.171325
   8 C :   -0.008680   -0.064441
   9 H :    0.028048    0.000882
  10 H :    0.029462   -0.000458
  11 C :    0.011939    0.571696
  12 H :    0.021224    0.003375
  13 C :   -0.054559    0.005359
  14 H :    0.034354    0.024435
  15 H :    0.034312    0.024273
  16 C :   -0.046136    0.001164
  17 H :    0.025558    0.000304
  18 H :    0.025541    0.000294
  19 C :   -0.067730   -0.000043
  20 H :    0.025590    0.000246
  21 H :    0.025589    0.000247
  22 C :   -0.035562    0.002147
  23 H :    0.038772    0.007773
  24 H :    0.038782    0.007784
  25 C :   -0.043470    0.000151
  26 H :    0.024543    0.000053
  27 H :    0.024547    0.000053
  28 C :   -0.047280    0.000017
  29 H :    0.023802    0.000088
  30 H :    0.023805    0.000088
  31 C :   -0.067637   -0.000038
  32 H :    0.025253    0.000016
  33 H :    0.025251    0.000016
  34 C :   -0.023160   -0.033969
  35 H :    0.028211   -0.000110
  36 H :    0.027378   -0.000007
  37 C :   -0.053388    0.004721
  38 C :   -0.001406   -0.008360
  39 C :   -0.023804    0.003241
  40 C :   -0.021448   -0.008907
  41 C :   -0.023943    0.003237
  42 C :   -0.002387   -0.008349
  43 H :    0.028200   -0.000040
  44 H :    0.029373    0.000018
  45 H :    0.030083   -0.000017
  46 H :    0.030018   -0.000022
  47 H :    0.029431    0.000018
  48 C :   -0.053286   -0.010501
  49 C :   -0.003142    0.020187
  50 C :   -0.024316   -0.008064
  51 C :   -0.022462    0.022194
  52 C :   -0.024209   -0.008046
  53 C :   -0.001737    0.020245
  54 H :    0.027890    0.000089
  55 H :    0.029233   -0.000036
  56 H :    0.029479    0.000027
  57 H :    0.029819    0.000023
  58 H :    0.029183   -0.000037

  Mayer bond orders larger than 0.100000
B(  0-C ,  1-C ) :   1.7112 B(  0-C , 48-C ) :   0.9338 B(  1-C ,  3-C ) :   0.8748
B(  1-C , 48-C ) :  -0.1834 B(  2-C ,  6-C ) :   0.8755 B(  2-C , 34-C ) :   1.7524
B(  2-C , 37-C ) :  -0.1772 B(  3-C ,  4-C ) :   1.2779 B(  3-C ,  8-C ) :   1.3995
B(  4-C ,  5-C ) :   1.2900 B(  4-C , 11-C ) :   1.3813 B(  5-C ,  6-C ) :   1.4491
B(  5-C ,  9-H ) :   0.9174 B(  6-C ,  7-C ) :   1.3431 B(  7-C ,  8-C ) :   1.4281
B(  7-C , 22-C ) :   1.0957 B(  8-C , 10-H ) :   0.9197 B( 11-C , 12-H ) :   0.8983
B( 11-C , 13-C ) :   1.0842 B( 13-C , 14-H ) :   0.9115 B( 13-C , 15-H ) :   0.9114
B( 13-C , 16-C ) :   1.0715 B( 16-C , 17-H ) :   0.9438 B( 16-C , 18-H ) :   0.9437
B( 16-C , 19-C ) :   1.1066 B( 19-C , 20-H ) :   0.9653 B( 19-C , 21-H ) :   0.9653
B( 19-C , 35-H ) :   0.9608 B( 22-C , 23-H ) :   0.8956 B( 22-C , 24-H ) :   0.8956
B( 22-C , 25-C ) :   1.1046 B( 25-C , 26-H ) :   0.9292 B( 25-C , 27-H ) :   0.9292
B( 25-C , 28-C ) :   1.0747 B( 28-C , 29-H ) :   0.9410 B( 28-C , 30-H ) :   0.9410
B( 28-C , 31-C ) :   1.1062 B( 31-C , 32-H ) :   0.9662 B( 31-C , 33-H ) :   0.9662
B( 31-C , 36-H ) :   0.9617 B( 34-C , 37-C ) :   0.9315 B( 37-C , 38-C ) :   1.4428
B( 37-C , 42-C ) :   1.4388 B( 38-C , 39-C ) :   1.4704 B( 38-C , 45-H ) :   0.9400
B( 39-C , 40-C ) :   1.4445 B( 39-C , 47-H ) :   0.9379 B( 40-C , 41-C ) :   1.4441
B( 40-C , 43-H ) :   0.9432 B( 41-C , 42-C ) :   1.4705 B( 41-C , 44-H ) :   0.9379
B( 42-C , 46-H ) :   0.9404 B( 48-C , 49-C ) :   1.4366 B( 48-C , 53-C ) :   1.4391
B( 49-C , 50-C ) :   1.4716 B( 49-C , 56-H ) :   0.9404 B( 50-C , 51-C ) :   1.4428
B( 50-C , 58-H ) :   0.9378 B( 51-C , 52-C ) :   1.4427 B( 51-C , 54-H ) :   0.9431
B( 52-C , 53-C ) :   1.4726 B( 52-C , 55-H ) :   0.9377 B( 53-C , 57-H ) :   0.9397

FINAL SINGLE POINT ENERGY     -1159.835761729574

DIPOLE MOMENT
-------------
                                X             Y             Z
Electronic contribution:     -0.50610       2.18357       0.02450
Nuclear contribution   :      0.63594      -2.16475      -0.02495
                        -----------------------------------------
Total Dipole Moment    :      0.12984       0.01882      -0.00045
                        -----------------------------------------
Magnitude (a.u.)       :      0.13119
Magnitude (Debye)      :      0.33347

Rotational constants in cm-1:     0.005965     0.001994     0.001497
Rotational constants in MHz :   178.831081    59.768381    44.884172

CHEMICAL SHIELDING SUMMARY (ppm)  --  Orbital contribution
----------------------------------------------------------

  Nucleus  Element    Isotropic     Anisotropy
  -------  -------  ------------   ------------
      9       H           24.423         11.705
     10       H           24.469         12.637
     12       H           25.258         11.500
     14       H           28.933          4.350
     15       H           28.931          4.356
     17       H           29.623          6.537
     18       H           29.622          6.557
     20       H           30.288          7.861
     21       H           30.287          7.859
     23       H           28.653          5.827
     24       H           28.653          5.817
     26       H           29.786          4.822
     27       H           29.787          4.818
     29       H           29.845          6.301
     30       H           29.845          6.300
     32       H           30.278          7.853
     33       H           30.278          7.854
     35       H           30.066         10.122
     36       H           30.078         10.325
     43       H           24.249          4.418
     44       H           24.202          5.490
     45       H           24.019          7.775
     46       H           24.009          7.814
     47       H           24.192          5.181
     54       H           24.272          4.409
     55       H           24.204          5.238
     56       H           24.042          7.636
     57       H           24.031          7.703
     58       H           24.210          5.379

                             ****ORCA TERMINATED NORMALLY****
TOTAL RUN TIME: 0 days 2 hours 53 minutes 16 seconds 485 msec
