                         Program Version 5.0.4 -  RELEASE  -
|  1> ! B3LYP cc-pVDZ AUTOAUX
|  2> %pal nprocs 16 end
|  3> *XYZFile 0 2 opt.xyz
|  4> %EPRNMR
|  5>         GTENSOR   TRUE
|  6>         NUCLEI    = ALL H {SHIFT, AISO, ADIP, AORB}
|  7>         ORI       CenterOfElCharge
|  8> END
|  9>
| 10>                          ****END OF INPUT****

CARTESIAN COORDINATES (ANGSTROEM)
---------------------------------
  C     -4.058780   -0.114027   -0.000729
  C     -2.837067   -0.037217    0.000458
  C      2.839456    0.025128    0.001303
  C     -1.417730    0.016651    0.000204
  C     -0.712128    1.278604   -0.003269
  C      0.709687    1.211983   -0.002475
  C      1.411298    0.003549    0.000975
  C      0.702255   -1.241266    0.003983
  C     -0.691408   -1.190779    0.003621
  H      1.285445    2.137757   -0.004762
  H     -1.264663   -2.117693    0.006030
  C     -1.396749    2.512534   -0.007530
  H     -2.489374    2.477379   -0.008222
  C     -0.740034    3.860790   -0.011243
  H     -0.071952    3.959921    0.869257
  H     -0.065383    3.951892   -0.887544
  C     -1.737595    5.026485   -0.020436
  H     -2.392913    4.932401   -0.905600
  H     -2.399942    4.940503    0.860321
  C     -1.059047    6.397666   -0.024026
  H     -0.415065    6.523869   -0.911556
  H     -0.422198    6.532067    0.867440
  C      1.476339   -2.542840    0.007434
  H      2.155053   -2.543120   -0.866126
  H      2.153685   -2.539371    0.882056
  C      0.658132   -3.836796    0.009521
  H     -0.005723   -3.860159    0.893279
  H     -0.004355   -3.863766   -0.875166
  C      1.539543   -5.091841    0.012796
  H      2.206455   -5.070185   -0.869111
  H      2.204866   -5.066716    0.895810
  C      0.733887   -6.393511    0.014637
  H      0.084970   -6.463882   -0.875410
  H      0.082960   -6.460115    0.903504
  C      4.061356    0.051700    0.002498
  H     -1.799216    7.213950   -0.030767
  H      1.392930   -7.276874    0.017252
  C      5.489033    0.088671    0.002622
  C      6.175837    1.322543    0.001416
  C      7.570008    1.354492    0.001416
  C      8.304589    0.163225    0.002633
  C      7.634082   -1.065321    0.003864
  C      6.240226   -1.107100    0.003878
  H      9.396716    0.192185    0.002617
  H      8.202215   -1.998703    0.004810
  H      5.600673    2.250353    0.000473
  H      5.715229   -2.064211    0.004815
  H      8.088008    2.316597    0.000461
  C     -5.481361   -0.217167   -0.000792
  C     -6.291506    0.940362   -0.001962
  C     -7.681432    0.829777   -0.001873
  C     -8.291180   -0.430157   -0.000632
  C     -7.498648   -1.583951    0.000528
  C     -6.108081   -1.483701    0.000446
  H     -9.380565   -0.512687   -0.000545
  H     -7.968746   -2.570377    0.001498
  H     -5.815246    1.922629   -0.002861
  H     -5.488129   -2.382218    0.001345
  H     -8.294683    1.734189   -0.002759

 Total Charge           Charge          ....    0
 Multiplicity           Mult            ....    2
 Number of Electrons    NEL             ....  209
 Basis Dimension        Dim             ....  565

ORBITAL ENERGIES
----------------
                 SPIN UP ORBITALS
  NO   OCC          E(Eh)            E(eV)
   0   1.0000     -10.216005      -277.9916
   1   1.0000     -10.214477      -277.9501
   2   1.0000     -10.212658      -277.9006
   3   1.0000     -10.210550      -277.8432
   4   1.0000     -10.201010      -277.5836
   5   1.0000     -10.196932      -277.4726
   6   1.0000     -10.196625      -277.4643
   7   1.0000     -10.196494      -277.4607
   8   1.0000     -10.195527      -277.4344
   9   1.0000     -10.195473      -277.4329
  10   1.0000     -10.195280      -277.4277
  11   1.0000     -10.195038      -277.4211
  12   1.0000     -10.194795      -277.4145
  13   1.0000     -10.194294      -277.4008
  14   1.0000     -10.193649      -277.3833
  15   1.0000     -10.193470      -277.3784
  16   1.0000     -10.193125      -277.3690
  17   1.0000     -10.191315      -277.3198
  18   1.0000     -10.188809      -277.2516
  19   1.0000     -10.188378      -277.2398
  20   1.0000     -10.187963      -277.2286
  21   1.0000     -10.187645      -277.2199
  22   1.0000     -10.186812      -277.1972
  23   1.0000     -10.186171      -277.1798
  24   1.0000     -10.185626      -277.1650
  25   1.0000     -10.183801      -277.1153
  26   1.0000     -10.181678      -277.0576
  27   1.0000     -10.181255      -277.0460
  28   1.0000     -10.177027      -276.9310
  29   1.0000     -10.175564      -276.8912
  30   1.0000      -0.872365       -23.7383
  31   1.0000      -0.862725       -23.4759
  32   1.0000      -0.861530       -23.4434
  33   1.0000      -0.819138       -22.2899
  34   1.0000      -0.798604       -21.7311
  35   1.0000      -0.796126       -21.6637
  36   1.0000      -0.781781       -21.2733
  37   1.0000      -0.772769       -21.0281
  38   1.0000      -0.765765       -20.8375
  39   1.0000      -0.750448       -20.4207
  40   1.0000      -0.749362       -20.3912
  41   1.0000      -0.737887       -20.0789
  42   1.0000      -0.726095       -19.7581
  43   1.0000      -0.709289       -19.3007
  44   1.0000      -0.696728       -18.9589
  45   1.0000      -0.656041       -17.8518
  46   1.0000      -0.645900       -17.5758
  47   1.0000      -0.623105       -16.9555
  48   1.0000      -0.613066       -16.6824
  49   1.0000      -0.608760       -16.5652
  50   1.0000      -0.608368       -16.5545
  51   1.0000      -0.607210       -16.5230
  52   1.0000      -0.590181       -16.0596
  53   1.0000      -0.579554       -15.7705
  54   1.0000      -0.560586       -15.2543
  55   1.0000      -0.540189       -14.6993
  56   1.0000      -0.534506       -14.5446
  57   1.0000      -0.506639       -13.7864
  58   1.0000      -0.503567       -13.7028
  59   1.0000      -0.479838       -13.0571
  60   1.0000      -0.478720       -13.0266
  61   1.0000      -0.474529       -12.9126
  62   1.0000      -0.470294       -12.7973
  63   1.0000      -0.461947       -12.5702
  64   1.0000      -0.457238       -12.4421
  65   1.0000      -0.455906       -12.4058
  66   1.0000      -0.436561       -11.8794
  67   1.0000      -0.434763       -11.8305
  68   1.0000      -0.430450       -11.7132
  69   1.0000      -0.428192       -11.6517
  70   1.0000      -0.425616       -11.5816
  71   1.0000      -0.423773       -11.5314
  72   1.0000      -0.422546       -11.4981
  73   1.0000      -0.421400       -11.4669
  74   1.0000      -0.411184       -11.1889
  75   1.0000      -0.397956       -10.8289
  76   1.0000      -0.397435       -10.8148
  77   1.0000      -0.383826       -10.4444
  78   1.0000      -0.381151       -10.3717
  79   1.0000      -0.377580       -10.2745
  80   1.0000      -0.374521       -10.1912
  81   1.0000      -0.364643        -9.9224
  82   1.0000      -0.361421        -9.8348
  83   1.0000      -0.359490        -9.7822
  84   1.0000      -0.355257        -9.6670
  85   1.0000      -0.353240        -9.6122
  86   1.0000      -0.349999        -9.5240
  87   1.0000      -0.348796        -9.4912
  88   1.0000      -0.339731        -9.2446
  89   1.0000      -0.332256        -9.0411
  90   1.0000      -0.331927        -9.0322
  91   1.0000      -0.330678        -8.9982
  92   1.0000      -0.327285        -8.9059
  93   1.0000      -0.323460        -8.8018
  94   1.0000      -0.321620        -8.7517
  95   1.0000      -0.305615        -8.3162
  96   1.0000      -0.278124        -7.5681
  97   1.0000      -0.271891        -7.3985
  98   1.0000      -0.267733        -7.2854
  99   1.0000      -0.266187        -7.2433
 100   1.0000      -0.258105        -7.0234
 101   1.0000      -0.257543        -7.0081
 102   1.0000      -0.235951        -6.4205
 103   1.0000      -0.208127        -5.6634
 104   1.0000      -0.169507        -4.6125
 105   0.0000      -0.063768        -1.7352
 106   0.0000      -0.026977        -0.7341
 107   0.0000      -0.009793        -0.2665
 108   0.0000      -0.008955        -0.2437
 109   0.0000       0.005718         0.1556

                 SPIN DOWN ORBITALS
  NO   OCC          E(Eh)            E(eV)
   0   1.0000     -10.215846      -277.9873
   1   1.0000     -10.214832      -277.9597
   2   1.0000     -10.212151      -277.8868
   3   1.0000     -10.209301      -277.8092
   4   1.0000     -10.199388      -277.5395
   5   1.0000     -10.197630      -277.4916
   6   1.0000     -10.196783      -277.4686
   7   1.0000     -10.196652      -277.4650
   8   1.0000     -10.195571      -277.4356
   9   1.0000     -10.195149      -277.4241
  10   1.0000     -10.194969      -277.4192
  11   1.0000     -10.194908      -277.4175
  12   1.0000     -10.194786      -277.4142
  13   1.0000     -10.194099      -277.3955
  14   1.0000     -10.193811      -277.3877
  15   1.0000     -10.193446      -277.3778
  16   1.0000     -10.190009      -277.2842
  17   1.0000     -10.189957      -277.2828
  18   1.0000     -10.189020      -277.2573
  19   1.0000     -10.188321      -277.2383
  20   1.0000     -10.187694      -277.2213
  21   1.0000     -10.186781      -277.1964
  22   1.0000     -10.186372      -277.1853
  23   1.0000     -10.185445      -277.1601
  24   1.0000     -10.183762      -277.1142
  25   1.0000     -10.181679      -277.0576
  26   1.0000     -10.181440      -277.0511
  27   1.0000     -10.181251      -277.0459
  28   1.0000     -10.177035      -276.9312
  29   1.0000     -10.175566      -276.8912
  30   1.0000      -0.869133       -23.6503
  31   1.0000      -0.862799       -23.4780
  32   1.0000      -0.861056       -23.4305
  33   1.0000      -0.814371       -22.1602
  34   1.0000      -0.796765       -21.6811
  35   1.0000      -0.794291       -21.6138
  36   1.0000      -0.781415       -21.2634
  37   1.0000      -0.771891       -21.0042
  38   1.0000      -0.763773       -20.7833
  39   1.0000      -0.750599       -20.4248
  40   1.0000      -0.749003       -20.3814
  41   1.0000      -0.735772       -20.0214
  42   1.0000      -0.723584       -19.6897
  43   1.0000      -0.708047       -19.2669
  44   1.0000      -0.694619       -18.9015
  45   1.0000      -0.653091       -17.7715
  46   1.0000      -0.644553       -17.5392
  47   1.0000      -0.621658       -16.9162
  48   1.0000      -0.609042       -16.5729
  49   1.0000      -0.608612       -16.5612
  50   1.0000      -0.607704       -16.5365
  51   1.0000      -0.606902       -16.5147
  52   1.0000      -0.589316       -16.0361
  53   1.0000      -0.577952       -15.7269
  54   1.0000      -0.557689       -15.1755
  55   1.0000      -0.539792       -14.6885
  56   1.0000      -0.533954       -14.5296
  57   1.0000      -0.503370       -13.6974
  58   1.0000      -0.502098       -13.6628
  59   1.0000      -0.479578       -13.0500
  60   1.0000      -0.477571       -12.9954
  61   1.0000      -0.473756       -12.8915
  62   1.0000      -0.469475       -12.7751
  63   1.0000      -0.458576       -12.4785
  64   1.0000      -0.457301       -12.4438
  65   1.0000      -0.455699       -12.4002
  66   1.0000      -0.436126       -11.8676
  67   1.0000      -0.434380       -11.8201
  68   1.0000      -0.428676       -11.6649
  69   1.0000      -0.427145       -11.6232
  70   1.0000      -0.424520       -11.5518
  71   1.0000      -0.423796       -11.5321
  72   1.0000      -0.422443       -11.4953
  73   1.0000      -0.418865       -11.3979
  74   1.0000      -0.410668       -11.1749
  75   1.0000      -0.396352       -10.7853
  76   1.0000      -0.390569       -10.6279
  77   1.0000      -0.382549       -10.4097
  78   1.0000      -0.379993       -10.3401
  79   1.0000      -0.375280       -10.2119
  80   1.0000      -0.371921       -10.1205
  81   1.0000      -0.363544        -9.8925
  82   1.0000      -0.361225        -9.8294
  83   1.0000      -0.359279        -9.7765
  84   1.0000      -0.354500        -9.6464
  85   1.0000      -0.350312        -9.5325
  86   1.0000      -0.350036        -9.5250
  87   1.0000      -0.348626        -9.4866
  88   1.0000      -0.337549        -9.1852
  89   1.0000      -0.331712        -9.0263
  90   1.0000      -0.330601        -8.9961
  91   1.0000      -0.328482        -8.9385
  92   1.0000      -0.326926        -8.8961
  93   1.0000      -0.322642        -8.7795
  94   1.0000      -0.321244        -8.7415
  95   1.0000      -0.303319        -8.2537
  96   1.0000      -0.274304        -7.4642
  97   1.0000      -0.267600        -7.2818
  98   1.0000      -0.265750        -7.2314
  99   1.0000      -0.258529        -7.0349
 100   1.0000      -0.258232        -7.0268
 101   1.0000      -0.256529        -6.9805
 102   1.0000      -0.234159        -6.3718
 103   1.0000      -0.200725        -5.4620
 104   0.0000      -0.084780        -2.3070
 105   0.0000      -0.055263        -1.5038
 106   0.0000      -0.025382        -0.6907
 107   0.0000      -0.010161        -0.2765
 108   0.0000      -0.008082        -0.2199

MULLIKEN ATOMIC CHARGES AND SPIN POPULATIONS
--------------------------------------------
   0 C :    0.140046    0.099455
   1 C :    0.281233   -0.066133
   2 C :    0.270276    0.031665
   3 C :   -0.178439    0.223069
   4 C :    0.072453   -0.169415
   5 C :   -0.028662    0.221768
   6 C :   -0.142850   -0.106752
   7 C :   -0.086589    0.232337
   8 C :    0.008116   -0.118002
   9 H :   -0.053898   -0.009241
  10 H :   -0.055214    0.004288
  11 C :   -0.100691    0.697111
  12 H :   -0.026258   -0.030304
  13 C :    0.034639   -0.047813
  14 H :    0.029105    0.031309
  15 H :    0.029158    0.031118
  16 C :   -0.039300    0.002263
  17 H :    0.012422    0.000479
  18 H :    0.012410    0.000461
  19 C :    0.006021   -0.000179
  20 H :    0.017598    0.000152
  21 H :    0.017614    0.000153
  22 C :    0.039743   -0.018538
  23 H :    0.031905    0.009885
  24 H :    0.031908    0.009900
  25 C :   -0.034185    0.000863
  26 H :    0.016799    0.000168
  27 H :    0.016751    0.000170
  28 C :   -0.024806    0.000024
  29 H :    0.005437    0.000052
  30 H :    0.005446    0.000052
  31 C :    0.003251   -0.000080
  32 H :    0.017318    0.000023
  33 H :    0.017307    0.000023
  34 C :    0.126593   -0.047476
  35 H :    0.013303   -0.000200
  36 H :    0.012545   -0.000005
  37 C :   -0.254669    0.010565
  38 C :    0.030032   -0.010926
  39 C :    0.040249    0.005609
  40 C :    0.032825   -0.011595
  41 C :    0.039822    0.005602
  42 C :    0.028004   -0.010902
  43 H :   -0.027095    0.000524
  44 H :   -0.027117   -0.000218
  45 H :   -0.040296    0.000466
  46 H :   -0.039339    0.000442
  47 H :   -0.027043   -0.000218
  48 C :   -0.258172   -0.023242
  49 C :    0.024988    0.026192
  50 C :    0.039823   -0.013760
  51 C :    0.032396    0.028755
  52 C :    0.040427   -0.013748
  53 C :    0.030024    0.026275
  54 H :   -0.027696   -0.001316
  55 H :   -0.027577    0.000542
  56 H :   -0.039198   -0.001090
  57 H :   -0.040987   -0.001149
  58 H :   -0.027908    0.000543
Sum of atomic charges         :   -0.0000000

LOEWDIN ATOMIC CHARGES AND SPIN POPULATIONS
-------------------------------------------
   0 C :   -0.022921    0.072953
   1 C :   -0.017078   -0.029645
   2 C :   -0.016055    0.016661
   3 C :   -0.039494    0.159572
   4 C :   -0.040026   -0.072061
   5 C :    0.009388    0.167356
   6 C :   -0.052956   -0.059013
   7 C :   -0.005802    0.171402
   8 C :   -0.008675   -0.064479
   9 H :    0.028050    0.000880
  10 H :    0.029462   -0.000458
  11 C :    0.011941    0.571614
  12 H :    0.021225    0.003379
  13 C :   -0.054557    0.005367
  14 H :    0.034354    0.024432
  15 H :    0.034312    0.024270
  16 C :   -0.046134    0.001164
  17 H :    0.025558    0.000304
  18 H :    0.025541    0.000294
  19 C :   -0.067733   -0.000042
  20 H :    0.025590    0.000246
  21 H :    0.025589    0.000247
  22 C :   -0.035564    0.002139
  23 H :    0.038773    0.007776
  24 H :    0.038784    0.007787
  25 C :   -0.043477    0.000152
  26 H :    0.024545    0.000053
  27 H :    0.024549    0.000053
  28 C :   -0.047281    0.000017
  29 H :    0.023804    0.000088
  30 H :    0.023806    0.000088
  31 C :   -0.067643   -0.000038
  32 H :    0.025255    0.000016
  33 H :    0.025253    0.000016
  34 C :   -0.023160   -0.034089
  35 H :    0.028211   -0.000110
  36 H :    0.027379   -0.000007
  37 C :   -0.053386    0.004793
  38 C :   -0.001381   -0.008442
  39 C :   -0.023814    0.003314
  40 C :   -0.021467   -0.008984
  41 C :   -0.023953    0.003310
  42 C :   -0.002362   -0.008430
  43 H :    0.028200   -0.000037
  44 H :    0.029372    0.000015
  45 H :    0.030080   -0.000013
  46 H :    0.030016   -0.000019
  47 H :    0.029430    0.000015
  48 C :   -0.053291   -0.010540
  49 C :   -0.003164    0.020230
  50 C :   -0.024305   -0.008103
  51 C :   -0.022447    0.022239
  52 C :   -0.024197   -0.008084
  53 C :   -0.001757    0.020289
  54 H :    0.027891    0.000087
  55 H :    0.029233   -0.000034
  56 H :    0.029481    0.000025
  57 H :    0.029822    0.000021
  58 H :    0.029184   -0.000036

  Mayer bond orders larger than 0.100000
B(  0-C ,  1-C ) :   1.7112 B(  0-C , 48-C ) :   0.9339 B(  1-C ,  3-C ) :   0.8748
B(  1-C , 48-C ) :  -0.1834 B(  2-C ,  6-C ) :   0.8755 B(  2-C , 34-C ) :   1.7524
B(  2-C , 37-C ) :  -0.1772 B(  3-C ,  4-C ) :   1.2779 B(  3-C ,  8-C ) :   1.3995
B(  4-C ,  5-C ) :   1.2899 B(  4-C , 11-C ) :   1.3813 B(  5-C ,  6-C ) :   1.4491
B(  5-C ,  9-H ) :   0.9174 B(  6-C ,  7-C ) :   1.3431 B(  7-C ,  8-C ) :   1.4281
B(  7-C , 22-C ) :   1.0957 B(  8-C , 10-H ) :   0.9197 B( 11-C , 12-H ) :   0.8983
B( 11-C , 13-C ) :   1.0842 B( 13-C , 14-H ) :   0.9115 B( 13-C , 15-H ) :   0.9114
B( 13-C , 16-C ) :   1.0715 B( 16-C , 17-H ) :   0.9438 B( 16-C , 18-H ) :   0.9437
B( 16-C , 19-C ) :   1.1066 B( 19-C , 20-H ) :   0.9653 B( 19-C , 21-H ) :   0.9653
B( 19-C , 35-H ) :   0.9608 B( 22-C , 23-H ) :   0.8956 B( 22-C , 24-H ) :   0.8956
B( 22-C , 25-C ) :   1.1046 B( 25-C , 26-H ) :   0.9292 B( 25-C , 27-H ) :   0.9292
B( 25-C , 28-C ) :   1.0747 B( 28-C , 29-H ) :   0.9410 B( 28-C , 30-H ) :   0.9410
B( 28-C , 31-C ) :   1.1062 B( 31-C , 32-H ) :   0.9662 B( 31-C , 33-H ) :   0.9662
B( 31-C , 36-H ) :   0.9617 B( 34-C , 37-C ) :   0.9315 B( 37-C , 38-C ) :   1.4428
B( 37-C , 42-C ) :   1.4388 B( 38-C , 39-C ) :   1.4704 B( 38-C , 45-H ) :   0.9400
B( 39-C , 40-C ) :   1.4445 B( 39-C , 47-H ) :   0.9379 B( 40-C , 41-C ) :   1.4441
B( 40-C , 43-H ) :   0.9432 B( 41-C , 42-C ) :   1.4705 B( 41-C , 44-H ) :   0.9379
B( 42-C , 46-H ) :   0.9404 B( 48-C , 49-C ) :   1.4366 B( 48-C , 53-C ) :   1.4391
B( 49-C , 50-C ) :   1.4716 B( 49-C , 56-H ) :   0.9404 B( 50-C , 51-C ) :   1.4428
B( 50-C , 58-H ) :   0.9378 B( 51-C , 52-C ) :   1.4427 B( 51-C , 54-H ) :   0.9431
B( 52-C , 53-C ) :   1.4726 B( 52-C , 55-H ) :   0.9377 B( 53-C , 57-H ) :   0.9397

FINAL SINGLE POINT ENERGY     -1159.835761223047

DIPOLE MOMENT
-------------
                                X             Y             Z
Electronic contribution:     -0.50625       2.18349       0.02450
Nuclear contribution   :      0.63594      -2.16475      -0.02495
                        -----------------------------------------
Total Dipole Moment    :      0.12969       0.01875      -0.00045
                        -----------------------------------------
Magnitude (a.u.)       :      0.13103
Magnitude (Debye)      :      0.33306

Rotational constants in cm-1:     0.005965     0.001994     0.001497
Rotational constants in MHz :   178.831081    59.768381    44.884172

CHEMICAL SHIELDING SUMMARY (ppm)  --  Orbital contribution
----------------------------------------------------------

  Nucleus  Element    Isotropic     Anisotropy
  -------  -------  ------------   ------------
      9       H           85.645         80.621
     10       H           91.519         69.986
     12       H           74.480         30.532
     14       H           85.287         28.888
     15       H           85.599         28.612
     17       H           43.009         34.623
     18       H           42.697         34.532
     20       H           28.142         23.756
     21       H           27.853         23.942
     23       H           85.404         55.809
     24       H           85.350         55.825
     26       H           94.986         28.275
     27       H           95.041         28.303
     29       H           40.834         35.469
     30       H           40.780         35.500
     32       H           34.591         23.191
     33       H           34.573         23.166
     35       H          -59.420         17.255
     36       H          -57.675         15.667
     43       H         -173.753       -225.655
     44       H          -81.528          0.728
     45       H          102.642         21.086
     46       H          101.276         23.828
     47       H          -80.527          1.424
     54       H         -172.671       -218.751
     55       H          -73.930          2.742
     56       H           94.335         21.937
     57       H          109.291         21.734
     58       H          -86.871         -1.473

                             ****ORCA TERMINATED NORMALLY****
TOTAL RUN TIME: 0 days 2 hours 49 minutes 40 seconds 211 msec
