                         Program Version 5.0.4 -  RELEASE  -
|  1> ! B3LYP cc-pVDZ AUTOAUX
|  2> %pal nprocs 16 end
|  3> *XYZFile 0 2 opt_cc-pVDZ.xyz
|  4> %EPRNMR
|  5>         GTENSOR   TRUE
|  6>         NUCLEI    = ALL H {SHIFT, AISO, ADIP, AORB}
|  7>         ORI       GIAO
|  8> END
|  9>
| 10>                          ****END OF INPUT****

CARTESIAN COORDINATES (ANGSTROEM)
---------------------------------
  C     -4.058802   -0.113743   -0.000638
  C     -2.837082   -0.037012    0.000596
  C      2.839442    0.025200    0.001408
  C     -1.417736    0.016708    0.000440
  C     -0.712104    1.278664   -0.002989
  C      0.709696    1.212126   -0.002239
  C      1.411278    0.003685    0.001144
  C      0.702218   -1.241143    0.004103
  C     -0.691439   -1.190738    0.003775
  H      1.285373    2.137947   -0.004501
  H     -1.264623   -2.117695    0.006128
  C     -1.396840    2.512550   -0.007144
  H     -2.489467    2.477294   -0.007689
  C     -0.740230    3.860835   -0.010830
  H     -0.072333    3.960091    0.869813
  H     -0.065361    3.951926   -0.886973
  C     -1.737840    5.026460   -0.020337
  H     -2.392938    4.932226   -0.905663
  H     -2.400382    4.940457    0.860286
  C     -1.059463    6.397701   -0.023862
  H     -0.415255    6.523918   -0.911233
  H     -0.422808    6.532237    0.867729
  C      1.476454   -2.542640    0.007445
  H      2.155156   -2.542783   -0.866135
  H      2.153820   -2.539173    0.882063
  C      0.658373   -3.836660    0.009440
  H     -0.005452   -3.860137    0.893237
  H     -0.004159   -3.863568   -0.875234
  C      1.539817   -5.091645    0.012545
  H      2.206693   -5.069883   -0.869403
  H      2.205180   -5.066600    0.895549
  C      0.734263   -6.393345    0.014279
  H      0.085293   -6.463700   -0.875739
  H      0.083360   -6.460128    0.903160
  C      4.061345    0.051651    0.002529
  H     -1.799752    7.213867   -0.030836
  H      1.393369   -7.276658    0.016770
  C      5.489028    0.088476    0.002584
  C      6.175982    1.322261    0.000834
  C      7.570150    1.354026    0.000776
  C      8.304603    0.162682    0.002478
  C      7.633940   -1.065777    0.004258
  C      6.240083   -1.107376    0.004332
  H      9.396741    0.191519    0.002419
  H      8.201953   -1.999231    0.005592
  H      5.600937    2.250144   -0.000494
  H      5.714974   -2.064429    0.005707
  H      8.088274    2.316067   -0.000612
  C     -5.481375   -0.216989   -0.000762
  C     -6.291611    0.940467   -0.002939
  C     -7.681526    0.829803   -0.002957
  C     -8.291194   -0.430164   -0.000846
  C     -7.498560   -1.583884    0.001279
  C     -6.108007   -1.483564    0.001311
  H     -9.380578   -0.512791   -0.000859
  H     -7.968599   -2.570341    0.002925
  H     -5.815417    1.922769   -0.004555
  H     -5.488004   -2.382040    0.002961
  H     -8.294824    1.734181   -0.004623

 Total Charge           Charge          ....    0
 Multiplicity           Mult            ....    2
 Number of Electrons    NEL             ....  209
 Basis Dimension        Dim             ....  565

ORBITAL ENERGIES
----------------
                 SPIN UP ORBITALS
  NO   OCC          E(Eh)            E(eV)
   0   1.0000     -10.216007      -277.9917
   1   1.0000     -10.214478      -277.9501
   2   1.0000     -10.212659      -277.9006
   3   1.0000     -10.210550      -277.8432
   4   1.0000     -10.201009      -277.5836
   5   1.0000     -10.196924      -277.4724
   6   1.0000     -10.196626      -277.4643
   7   1.0000     -10.196494      -277.4607
   8   1.0000     -10.195525      -277.4343
   9   1.0000     -10.195474      -277.4330
  10   1.0000     -10.195281      -277.4277
  11   1.0000     -10.195038      -277.4211
  12   1.0000     -10.194795      -277.4145
  13   1.0000     -10.194295      -277.4009
  14   1.0000     -10.193649      -277.3833
  15   1.0000     -10.193469      -277.3784
  16   1.0000     -10.193138      -277.3694
  17   1.0000     -10.191301      -277.3194
  18   1.0000     -10.188810      -277.2516
  19   1.0000     -10.188395      -277.2403
  20   1.0000     -10.187963      -277.2286
  21   1.0000     -10.187643      -277.2198
  22   1.0000     -10.186812      -277.1973
  23   1.0000     -10.186162      -277.1795
  24   1.0000     -10.185626      -277.1650
  25   1.0000     -10.183799      -277.1153
  26   1.0000     -10.181680      -277.0576
  27   1.0000     -10.181252      -277.0460
  28   1.0000     -10.177027      -276.9310
  29   1.0000     -10.175561      -276.8911
  30   1.0000      -0.872366       -23.7383
  31   1.0000      -0.862728       -23.4760
  32   1.0000      -0.861533       -23.4435
  33   1.0000      -0.819136       -22.2898
  34   1.0000      -0.798605       -21.7311
  35   1.0000      -0.796128       -21.6637
  36   1.0000      -0.781782       -21.2734
  37   1.0000      -0.772770       -21.0281
  38   1.0000      -0.765769       -20.8376
  39   1.0000      -0.750449       -20.4208
  40   1.0000      -0.749363       -20.3912
  41   1.0000      -0.737885       -20.0789
  42   1.0000      -0.726098       -19.7581
  43   1.0000      -0.709293       -19.3008
  44   1.0000      -0.696728       -18.9589
  45   1.0000      -0.656038       -17.8517
  46   1.0000      -0.645904       -17.5759
  47   1.0000      -0.623104       -16.9555
  48   1.0000      -0.613063       -16.6823
  49   1.0000      -0.608761       -16.5652
  50   1.0000      -0.608368       -16.5545
  51   1.0000      -0.607209       -16.5230
  52   1.0000      -0.590177       -16.0595
  53   1.0000      -0.579547       -15.7703
  54   1.0000      -0.560580       -15.2542
  55   1.0000      -0.540190       -14.6993
  56   1.0000      -0.534507       -14.5447
  57   1.0000      -0.506639       -13.7864
  58   1.0000      -0.503567       -13.7028
  59   1.0000      -0.479837       -13.0570
  60   1.0000      -0.478720       -13.0266
  61   1.0000      -0.474529       -12.9126
  62   1.0000      -0.470292       -12.7973
  63   1.0000      -0.461945       -12.5702
  64   1.0000      -0.457240       -12.4421
  65   1.0000      -0.455908       -12.4059
  66   1.0000      -0.436561       -11.8794
  67   1.0000      -0.434763       -11.8305
  68   1.0000      -0.430445       -11.7130
  69   1.0000      -0.428204       -11.6520
  70   1.0000      -0.425618       -11.5817
  71   1.0000      -0.423772       -11.5314
  72   1.0000      -0.422545       -11.4980
  73   1.0000      -0.421398       -11.4668
  74   1.0000      -0.411189       -11.1890
  75   1.0000      -0.397952       -10.8288
  76   1.0000      -0.397438       -10.8148
  77   1.0000      -0.383824       -10.4444
  78   1.0000      -0.381153       -10.3717
  79   1.0000      -0.377585       -10.2746
  80   1.0000      -0.374521       -10.1912
  81   1.0000      -0.364643        -9.9225
  82   1.0000      -0.361424        -9.8349
  83   1.0000      -0.359493        -9.7823
  84   1.0000      -0.355260        -9.6671
  85   1.0000      -0.353235        -9.6120
  86   1.0000      -0.349998        -9.5239
  87   1.0000      -0.348794        -9.4912
  88   1.0000      -0.339732        -9.2446
  89   1.0000      -0.332254        -9.0411
  90   1.0000      -0.331925        -9.0321
  91   1.0000      -0.330671        -8.9980
  92   1.0000      -0.327284        -8.9058
  93   1.0000      -0.323460        -8.8018
  94   1.0000      -0.321613        -8.7515
  95   1.0000      -0.305615        -8.3162
  96   1.0000      -0.278122        -7.5681
  97   1.0000      -0.271892        -7.3986
  98   1.0000      -0.267733        -7.2854
  99   1.0000      -0.266186        -7.2433
 100   1.0000      -0.258106        -7.0234
 101   1.0000      -0.257544        -7.0081
 102   1.0000      -0.235952        -6.4206
 103   1.0000      -0.208129        -5.6635
 104   1.0000      -0.169504        -4.6124
 105   0.0000      -0.063770        -1.7353
 106   0.0000      -0.026978        -0.7341
 107   0.0000      -0.009793        -0.2665
 108   0.0000      -0.008953        -0.2436
 109   0.0000       0.005716         0.1555

                 SPIN DOWN ORBITALS
  NO   OCC          E(Eh)            E(eV)
   0   1.0000     -10.215848      -277.9873
   1   1.0000     -10.214832      -277.9597
   2   1.0000     -10.212151      -277.8868
   3   1.0000     -10.209301      -277.8092
   4   1.0000     -10.199381      -277.5393
   5   1.0000     -10.197629      -277.4916
   6   1.0000     -10.196784      -277.4686
   7   1.0000     -10.196652      -277.4650
   8   1.0000     -10.195571      -277.4356
   9   1.0000     -10.195148      -277.4241
  10   1.0000     -10.194969      -277.4192
  11   1.0000     -10.194909      -277.4176
  12   1.0000     -10.194786      -277.4142
  13   1.0000     -10.194099      -277.3955
  14   1.0000     -10.193811      -277.3877
  15   1.0000     -10.193447      -277.3778
  16   1.0000     -10.190022      -277.2846
  17   1.0000     -10.189974      -277.2833
  18   1.0000     -10.189021      -277.2573
  19   1.0000     -10.188318      -277.2382
  20   1.0000     -10.187694      -277.2213
  21   1.0000     -10.186781      -277.1964
  22   1.0000     -10.186363      -277.1850
  23   1.0000     -10.185445      -277.1600
  24   1.0000     -10.183760      -277.1142
  25   1.0000     -10.181680      -277.0576
  26   1.0000     -10.181426      -277.0507
  27   1.0000     -10.181249      -277.0459
  28   1.0000     -10.177035      -276.9312
  29   1.0000     -10.175563      -276.8911
  30   1.0000      -0.869134       -23.6503
  31   1.0000      -0.862801       -23.4780
  32   1.0000      -0.861058       -23.4306
  33   1.0000      -0.814370       -22.1601
  34   1.0000      -0.796765       -21.6811
  35   1.0000      -0.794293       -21.6138
  36   1.0000      -0.781416       -21.2634
  37   1.0000      -0.771892       -21.0042
  38   1.0000      -0.763777       -20.7834
  39   1.0000      -0.750600       -20.4249
  40   1.0000      -0.749004       -20.3814
  41   1.0000      -0.735771       -20.0213
  42   1.0000      -0.723586       -19.6898
  43   1.0000      -0.708050       -19.2670
  44   1.0000      -0.694620       -18.9016
  45   1.0000      -0.653088       -17.7714
  46   1.0000      -0.644558       -17.5393
  47   1.0000      -0.621658       -16.9162
  48   1.0000      -0.609039       -16.5728
  49   1.0000      -0.608612       -16.5612
  50   1.0000      -0.607705       -16.5365
  51   1.0000      -0.606902       -16.5146
  52   1.0000      -0.589312       -16.0360
  53   1.0000      -0.577945       -15.7267
  54   1.0000      -0.557685       -15.1754
  55   1.0000      -0.539793       -14.6885
  56   1.0000      -0.533955       -14.5296
  57   1.0000      -0.503369       -13.6974
  58   1.0000      -0.502099       -13.6628
  59   1.0000      -0.479578       -13.0500
  60   1.0000      -0.477571       -12.9954
  61   1.0000      -0.473755       -12.8915
  62   1.0000      -0.469474       -12.7750
  63   1.0000      -0.458575       -12.4784
  64   1.0000      -0.457303       -12.4438
  65   1.0000      -0.455701       -12.4002
  66   1.0000      -0.436127       -11.8676
  67   1.0000      -0.434381       -11.8201
  68   1.0000      -0.428675       -11.6648
  69   1.0000      -0.427152       -11.6234
  70   1.0000      -0.424522       -11.5518
  71   1.0000      -0.423796       -11.5321
  72   1.0000      -0.422442       -11.4952
  73   1.0000      -0.418863       -11.3978
  74   1.0000      -0.410674       -11.1750
  75   1.0000      -0.396354       -10.7854
  76   1.0000      -0.390566       -10.6278
  77   1.0000      -0.382549       -10.4097
  78   1.0000      -0.379994       -10.3402
  79   1.0000      -0.375285       -10.2120
  80   1.0000      -0.371920       -10.1205
  81   1.0000      -0.363544        -9.8925
  82   1.0000      -0.361227        -9.8295
  83   1.0000      -0.359281        -9.7765
  84   1.0000      -0.354503        -9.6465
  85   1.0000      -0.350307        -9.5323
  86   1.0000      -0.350034        -9.5249
  87   1.0000      -0.348624        -9.4865
  88   1.0000      -0.337549        -9.1852
  89   1.0000      -0.331710        -9.0263
  90   1.0000      -0.330598        -8.9960
  91   1.0000      -0.328475        -8.9383
  92   1.0000      -0.326925        -8.8961
  93   1.0000      -0.322641        -8.7795
  94   1.0000      -0.321237        -8.7413
  95   1.0000      -0.303320        -8.2538
  96   1.0000      -0.274304        -7.4642
  97   1.0000      -0.267600        -7.2818
  98   1.0000      -0.265748        -7.2314
  99   1.0000      -0.258530        -7.0350
 100   1.0000      -0.258233        -7.0269
 101   1.0000      -0.256530        -6.9805
 102   1.0000      -0.234161        -6.3718
 103   1.0000      -0.200726        -5.4620
 104   0.0000      -0.084777        -2.3069
 105   0.0000      -0.055266        -1.5039
 106   0.0000      -0.025383        -0.6907
 107   0.0000      -0.010161        -0.2765
 108   0.0000      -0.008080        -0.2199

MULLIKEN ATOMIC CHARGES AND SPIN POPULATIONS
--------------------------------------------
   0 C :    0.140044    0.099452
   1 C :    0.281273   -0.066134
   2 C :    0.270325    0.031663
   3 C :   -0.178415    0.223075
   4 C :    0.072425   -0.169417
   5 C :   -0.028662    0.221761
   6 C :   -0.142836   -0.106751
   7 C :   -0.086586    0.232336
   8 C :    0.008095   -0.118000
   9 H :   -0.053890   -0.009241
  10 H :   -0.055207    0.004288
  11 C :   -0.100674    0.697116
  12 H :   -0.026257   -0.030304
  13 C :    0.034631   -0.047813
  14 H :    0.029103    0.031315
  15 H :    0.029155    0.031115
  16 C :   -0.039306    0.002264
  17 H :    0.012420    0.000480
  18 H :    0.012413    0.000460
  19 C :    0.006027   -0.000179
  20 H :    0.017597    0.000152
  21 H :    0.017614    0.000153
  22 C :    0.039740   -0.018538
  23 H :    0.031905    0.009885
  24 H :    0.031908    0.009900
  25 C :   -0.034184    0.000863
  26 H :    0.016796    0.000168
  27 H :    0.016751    0.000170
  28 C :   -0.024805    0.000024
  29 H :    0.005438    0.000052
  30 H :    0.005447    0.000052
  31 C :    0.003251   -0.000080
  32 H :    0.017317    0.000023
  33 H :    0.017305    0.000023
  34 C :    0.126600   -0.047477
  35 H :    0.013304   -0.000200
  36 H :    0.012542   -0.000005
  37 C :   -0.254720    0.010565
  38 C :    0.030032   -0.010925
  39 C :    0.040248    0.005608
  40 C :    0.032822   -0.011595
  41 C :    0.039821    0.005601
  42 C :    0.028004   -0.010901
  43 H :   -0.027093    0.000524
  44 H :   -0.027118   -0.000218
  45 H :   -0.040298    0.000466
  46 H :   -0.039337    0.000442
  47 H :   -0.027043   -0.000219
  48 C :   -0.258211   -0.023241
  49 C :    0.024993    0.026191
  50 C :    0.039823   -0.013760
  51 C :    0.032393    0.028755
  52 C :    0.040428   -0.013747
  53 C :    0.030015    0.026274
  54 H :   -0.027694   -0.001316
  55 H :   -0.027577    0.000542
  56 H :   -0.039198   -0.001090
  57 H :   -0.040988   -0.001149
  58 H :   -0.027908    0.000543
Sum of atomic charges         :   -0.0000000

LOEWDIN ATOMIC CHARGES AND SPIN POPULATIONS
-------------------------------------------
   0 C :   -0.022920    0.072951
   1 C :   -0.017075   -0.029645
   2 C :   -0.016051    0.016661
   3 C :   -0.039489    0.159576
   4 C :   -0.040017   -0.072064
   5 C :    0.009372    0.167348
   6 C :   -0.052949   -0.059015
   7 C :   -0.005794    0.171402
   8 C :   -0.008686   -0.064478
   9 H :    0.028053    0.000880
  10 H :    0.029465   -0.000458
  11 C :    0.011944    0.571617
  12 H :    0.021226    0.003379
  13 C :   -0.054567    0.005369
  14 H :    0.034358    0.024438
  15 H :    0.034309    0.024267
  16 C :   -0.046141    0.001164
  17 H :    0.025561    0.000305
  18 H :    0.025543    0.000294
  19 C :   -0.067735   -0.000042
  20 H :    0.025592    0.000245
  21 H :    0.025591    0.000247
  22 C :   -0.035564    0.002139
  23 H :    0.038774    0.007776
  24 H :    0.038783    0.007788
  25 C :   -0.043486    0.000152
  26 H :    0.024547    0.000053
  27 H :    0.024552    0.000053
  28 C :   -0.047291    0.000017
  29 H :    0.023809    0.000088
  30 H :    0.023810    0.000088
  31 C :   -0.067646   -0.000038
  32 H :    0.025256    0.000016
  33 H :    0.025253    0.000016
  34 C :   -0.023160   -0.034090
  35 H :    0.028212   -0.000110
  36 H :    0.027380   -0.000007
  37 C :   -0.053387    0.004793
  38 C :   -0.001383   -0.008442
  39 C :   -0.023815    0.003314
  40 C :   -0.021467   -0.008984
  41 C :   -0.023954    0.003310
  42 C :   -0.002363   -0.008430
  43 H :    0.028202   -0.000037
  44 H :    0.029372    0.000015
  45 H :    0.030080   -0.000013
  46 H :    0.030018   -0.000019
  47 H :    0.029431    0.000015
  48 C :   -0.053292   -0.010539
  49 C :   -0.003167    0.020230
  50 C :   -0.024306   -0.008103
  51 C :   -0.022448    0.022239
  52 C :   -0.024198   -0.008084
  53 C :   -0.001756    0.020289
  54 H :    0.027893    0.000087
  55 H :    0.029234   -0.000034
  56 H :    0.029481    0.000025
  57 H :    0.029823    0.000021
  58 H :    0.029184   -0.000036

  Mayer bond orders larger than 0.100000
B(  0-C ,  1-C ) :   1.7111 B(  0-C , 48-C ) :   0.9339 B(  1-C ,  3-C ) :   0.8748
B(  1-C , 48-C ) :  -0.1835 B(  2-C ,  6-C ) :   0.8755 B(  2-C , 34-C ) :   1.7523
B(  2-C , 37-C ) :  -0.1773 B(  3-C ,  4-C ) :   1.2779 B(  3-C ,  8-C ) :   1.3995
B(  4-C ,  5-C ) :   1.2899 B(  4-C , 11-C ) :   1.3813 B(  5-C ,  6-C ) :   1.4491
B(  5-C ,  9-H ) :   0.9174 B(  6-C ,  7-C ) :   1.3431 B(  7-C ,  8-C ) :   1.4281
B(  7-C , 22-C ) :   1.0957 B(  8-C , 10-H ) :   0.9197 B( 11-C , 12-H ) :   0.8983
B( 11-C , 13-C ) :   1.0842 B( 13-C , 14-H ) :   0.9115 B( 13-C , 15-H ) :   0.9114
B( 13-C , 16-C ) :   1.0715 B( 16-C , 17-H ) :   0.9438 B( 16-C , 18-H ) :   0.9437
B( 16-C , 19-C ) :   1.1066 B( 19-C , 20-H ) :   0.9653 B( 19-C , 21-H ) :   0.9653
B( 19-C , 35-H ) :   0.9608 B( 22-C , 23-H ) :   0.8956 B( 22-C , 24-H ) :   0.8956
B( 22-C , 25-C ) :   1.1045 B( 25-C , 26-H ) :   0.9292 B( 25-C , 27-H ) :   0.9292
B( 25-C , 28-C ) :   1.0747 B( 28-C , 29-H ) :   0.9410 B( 28-C , 30-H ) :   0.9410
B( 28-C , 31-C ) :   1.1062 B( 31-C , 32-H ) :   0.9662 B( 31-C , 33-H ) :   0.9662
B( 31-C , 36-H ) :   0.9617 B( 34-C , 37-C ) :   0.9314 B( 37-C , 38-C ) :   1.4428
B( 37-C , 42-C ) :   1.4388 B( 38-C , 39-C ) :   1.4704 B( 38-C , 45-H ) :   0.9400
B( 39-C , 40-C ) :   1.4445 B( 39-C , 47-H ) :   0.9379 B( 40-C , 41-C ) :   1.4441
B( 40-C , 43-H ) :   0.9432 B( 41-C , 42-C ) :   1.4705 B( 41-C , 44-H ) :   0.9379
B( 42-C , 46-H ) :   0.9404 B( 48-C , 49-C ) :   1.4366 B( 48-C , 53-C ) :   1.4391
B( 49-C , 50-C ) :   1.4716 B( 49-C , 56-H ) :   0.9404 B( 50-C , 51-C ) :   1.4428
B( 50-C , 58-H ) :   0.9378 B( 51-C , 52-C ) :   1.4427 B( 51-C , 54-H ) :   0.9431
B( 52-C , 53-C ) :   1.4726 B( 52-C , 55-H ) :   0.9377 B( 53-C , 57-H ) :   0.9397

FINAL SINGLE POINT ENERGY     -1159.835760042849

DIPOLE MOMENT
-------------
                                X             Y             Z
Electronic contribution:     -0.50643       2.18361       0.02572
Nuclear contribution   :      0.63614      -2.16497      -0.02623
                        -----------------------------------------
Total Dipole Moment    :      0.12971       0.01864      -0.00051
                        -----------------------------------------
Magnitude (a.u.)       :      0.13104
Magnitude (Debye)      :      0.33308

Rotational constants in cm-1:     0.005965     0.001994     0.001497
Rotational constants in MHz :   178.839864    59.767525    44.884240

CHEMICAL SHIELDING SUMMARY (ppm)  --  Orbital contribution
----------------------------------------------------------

  Nucleus  Element    Isotropic     Anisotropy
  -------  -------  ------------   ------------
      9       H           24.423         11.704
     10       H           24.469         12.635
     12       H           25.258         11.500
     14       H           28.933          4.350
     15       H           28.931          4.356
     17       H           29.623          6.536
     18       H           29.622          6.558
     20       H           30.288          7.860
     21       H           30.288          7.858
     23       H           28.652          5.827
     24       H           28.653          5.818
     26       H           29.786          4.822
     27       H           29.786          4.817
     29       H           29.845          6.302
     30       H           29.845          6.301
     32       H           30.278          7.854
     33       H           30.279          7.853
     35       H           30.066         10.122
     36       H           30.077         10.325
     43       H           24.249          4.417
     44       H           24.201          5.491
     45       H           24.021          7.774
     46       H           24.009          7.816
     47       H           24.194          5.178
     54       H           24.272          4.410
     55       H           24.203          5.240
     56       H           24.044          7.634
     57       H           24.030          7.704
     58       H           24.210          5.379

                             ****ORCA TERMINATED NORMALLY****
TOTAL RUN TIME: 0 days 2 hours 51 minutes 32 seconds 286 msec
