                         Program Version 5.0.4 -  RELEASE  -
|  1> ! B3LYP cc-pVDZ AUTOAUX
|  2> %pal nprocs 16 end
|  3> *XYZFile 0 2 opt_cc-pVDZ.xyz
|  4> %EPRNMR
|  5>         GTENSOR   TRUE
|  6>         NUCLEI    = ALL H {SHIFT, AISO, ADIP, AORB}
|  7>         ORI       CenterOfElCharge
|  8> END
|  9>
| 10>                          ****END OF INPUT****

CARTESIAN COORDINATES (ANGSTROEM)
---------------------------------
  C     -4.058802   -0.113743   -0.000638
  C     -2.837082   -0.037012    0.000596
  C      2.839442    0.025200    0.001408
  C     -1.417736    0.016708    0.000440
  C     -0.712104    1.278664   -0.002989
  C      0.709696    1.212126   -0.002239
  C      1.411278    0.003685    0.001144
  C      0.702218   -1.241143    0.004103
  C     -0.691439   -1.190738    0.003775
  H      1.285373    2.137947   -0.004501
  H     -1.264623   -2.117695    0.006128
  C     -1.396840    2.512550   -0.007144
  H     -2.489467    2.477294   -0.007689
  C     -0.740230    3.860835   -0.010830
  H     -0.072333    3.960091    0.869813
  H     -0.065361    3.951926   -0.886973
  C     -1.737840    5.026460   -0.020337
  H     -2.392938    4.932226   -0.905663
  H     -2.400382    4.940457    0.860286
  C     -1.059463    6.397701   -0.023862
  H     -0.415255    6.523918   -0.911233
  H     -0.422808    6.532237    0.867729
  C      1.476454   -2.542640    0.007445
  H      2.155156   -2.542783   -0.866135
  H      2.153820   -2.539173    0.882063
  C      0.658373   -3.836660    0.009440
  H     -0.005452   -3.860137    0.893237
  H     -0.004159   -3.863568   -0.875234
  C      1.539817   -5.091645    0.012545
  H      2.206693   -5.069883   -0.869403
  H      2.205180   -5.066600    0.895549
  C      0.734263   -6.393345    0.014279
  H      0.085293   -6.463700   -0.875739
  H      0.083360   -6.460128    0.903160
  C      4.061345    0.051651    0.002529
  H     -1.799752    7.213867   -0.030836
  H      1.393369   -7.276658    0.016770
  C      5.489028    0.088476    0.002584
  C      6.175982    1.322261    0.000834
  C      7.570150    1.354026    0.000776
  C      8.304603    0.162682    0.002478
  C      7.633940   -1.065777    0.004258
  C      6.240083   -1.107376    0.004332
  H      9.396741    0.191519    0.002419
  H      8.201953   -1.999231    0.005592
  H      5.600937    2.250144   -0.000494
  H      5.714974   -2.064429    0.005707
  H      8.088274    2.316067   -0.000612
  C     -5.481375   -0.216989   -0.000762
  C     -6.291611    0.940467   -0.002939
  C     -7.681526    0.829803   -0.002957
  C     -8.291194   -0.430164   -0.000846
  C     -7.498560   -1.583884    0.001279
  C     -6.108007   -1.483564    0.001311
  H     -9.380578   -0.512791   -0.000859
  H     -7.968599   -2.570341    0.002925
  H     -5.815417    1.922769   -0.004555
  H     -5.488004   -2.382040    0.002961
  H     -8.294824    1.734181   -0.004623

 Total Charge           Charge          ....    0
 Multiplicity           Mult            ....    2
 Number of Electrons    NEL             ....  209
 Basis Dimension        Dim             ....  565

ORBITAL ENERGIES
----------------
                 SPIN UP ORBITALS
  NO   OCC          E(Eh)            E(eV)
   0   1.0000     -10.215942      -277.9899
   1   1.0000     -10.214506      -277.9508
   2   1.0000     -10.212695      -277.9015
   3   1.0000     -10.210542      -277.8430
   4   1.0000     -10.200994      -277.5832
   5   1.0000     -10.196964      -277.4735
   6   1.0000     -10.196563      -277.4626
   7   1.0000     -10.196436      -277.4591
   8   1.0000     -10.195568      -277.4355
   9   1.0000     -10.195519      -277.4342
  10   1.0000     -10.195319      -277.4287
  11   1.0000     -10.195060      -277.4217
  12   1.0000     -10.194830      -277.4154
  13   1.0000     -10.194253      -277.3997
  14   1.0000     -10.193628      -277.3827
  15   1.0000     -10.193442      -277.3777
  16   1.0000     -10.193207      -277.3713
  17   1.0000     -10.191299      -277.3193
  18   1.0000     -10.188798      -277.2513
  19   1.0000     -10.188392      -277.2402
  20   1.0000     -10.187961      -277.2285
  21   1.0000     -10.187639      -277.2197
  22   1.0000     -10.186794      -277.1968
  23   1.0000     -10.186157      -277.1794
  24   1.0000     -10.185638      -277.1653
  25   1.0000     -10.183795      -277.1151
  26   1.0000     -10.181685      -277.0577
  27   1.0000     -10.181262      -277.0462
  28   1.0000     -10.177031      -276.9311
  29   1.0000     -10.175570      -276.8913
  30   1.0000      -0.872379       -23.7386
  31   1.0000      -0.862711       -23.4756
  32   1.0000      -0.861538       -23.4436
  33   1.0000      -0.819142       -22.2900
  34   1.0000      -0.798610       -21.7313
  35   1.0000      -0.796130       -21.6638
  36   1.0000      -0.781777       -21.2732
  37   1.0000      -0.772768       -21.0281
  38   1.0000      -0.765777       -20.8378
  39   1.0000      -0.750436       -20.4204
  40   1.0000      -0.749368       -20.3913
  41   1.0000      -0.737887       -20.0789
  42   1.0000      -0.726099       -19.7582
  43   1.0000      -0.709294       -19.3009
  44   1.0000      -0.696732       -18.9590
  45   1.0000      -0.656043       -17.8518
  46   1.0000      -0.645907       -17.5760
  47   1.0000      -0.623102       -16.9555
  48   1.0000      -0.613065       -16.6823
  49   1.0000      -0.608758       -16.5652
  50   1.0000      -0.608362       -16.5544
  51   1.0000      -0.607211       -16.5230
  52   1.0000      -0.590181       -16.0596
  53   1.0000      -0.579549       -15.7703
  54   1.0000      -0.560587       -15.2543
  55   1.0000      -0.540185       -14.6992
  56   1.0000      -0.534504       -14.5446
  57   1.0000      -0.506646       -13.7865
  58   1.0000      -0.503574       -13.7030
  59   1.0000      -0.479835       -13.0570
  60   1.0000      -0.478724       -13.0268
  61   1.0000      -0.474530       -12.9126
  62   1.0000      -0.470293       -12.7973
  63   1.0000      -0.461946       -12.5702
  64   1.0000      -0.457229       -12.4418
  65   1.0000      -0.455909       -12.4059
  66   1.0000      -0.436558       -11.8793
  67   1.0000      -0.434763       -11.8305
  68   1.0000      -0.430448       -11.7131
  69   1.0000      -0.428213       -11.6523
  70   1.0000      -0.425622       -11.5818
  71   1.0000      -0.423762       -11.5311
  72   1.0000      -0.422549       -11.4981
  73   1.0000      -0.421399       -11.4668
  74   1.0000      -0.411195       -11.1892
  75   1.0000      -0.397959       -10.8290
  76   1.0000      -0.397444       -10.8150
  77   1.0000      -0.383824       -10.4444
  78   1.0000      -0.381146       -10.3715
  79   1.0000      -0.377590       -10.2748
  80   1.0000      -0.374523       -10.1913
  81   1.0000      -0.364646        -9.9225
  82   1.0000      -0.361424        -9.8348
  83   1.0000      -0.359490        -9.7822
  84   1.0000      -0.355263        -9.6672
  85   1.0000      -0.353239        -9.6121
  86   1.0000      -0.349991        -9.5237
  87   1.0000      -0.348794        -9.4912
  88   1.0000      -0.339736        -9.2447
  89   1.0000      -0.332255        -9.0411
  90   1.0000      -0.331928        -9.0322
  91   1.0000      -0.330672        -8.9980
  92   1.0000      -0.327286        -8.9059
  93   1.0000      -0.323463        -8.8019
  94   1.0000      -0.321614        -8.7516
  95   1.0000      -0.305614        -8.3162
  96   1.0000      -0.278123        -7.5681
  97   1.0000      -0.271901        -7.3988
  98   1.0000      -0.267721        -7.2851
  99   1.0000      -0.266194        -7.2435
 100   1.0000      -0.258094        -7.0231
 101   1.0000      -0.257548        -7.0082
 102   1.0000      -0.235951        -6.4205
 103   1.0000      -0.208132        -5.6635
 104   1.0000      -0.169511        -4.6126
 105   0.0000      -0.063771        -1.7353
 106   0.0000      -0.026977        -0.7341
 107   0.0000      -0.009782        -0.2662
 108   0.0000      -0.008956        -0.2437
 109   0.0000       0.005712         0.1554

                 SPIN DOWN ORBITALS
  NO   OCC          E(Eh)            E(eV)
   0   1.0000     -10.215781      -277.9855
   1   1.0000     -10.214861      -277.9605
   2   1.0000     -10.212144      -277.8866
   3   1.0000     -10.209336      -277.8102
   4   1.0000     -10.199421      -277.5404
   5   1.0000     -10.197613      -277.4911
   6   1.0000     -10.196721      -277.4669
   7   1.0000     -10.196594      -277.4634
   8   1.0000     -10.195623      -277.4370
   9   1.0000     -10.195189      -277.4252
  10   1.0000     -10.194991      -277.4198
  11   1.0000     -10.194944      -277.4185
  12   1.0000     -10.194816      -277.4150
  13   1.0000     -10.194069      -277.3947
  14   1.0000     -10.193791      -277.3871
  15   1.0000     -10.193410      -277.3768
  16   1.0000     -10.190090      -277.2865
  17   1.0000     -10.189972      -277.2832
  18   1.0000     -10.188989      -277.2565
  19   1.0000     -10.188314      -277.2381
  20   1.0000     -10.187707      -277.2216
  21   1.0000     -10.186782      -277.1964
  22   1.0000     -10.186359      -277.1849
  23   1.0000     -10.185443      -277.1600
  24   1.0000     -10.183756      -277.1141
  25   1.0000     -10.181686      -277.0578
  26   1.0000     -10.181425      -277.0507
  27   1.0000     -10.181259      -277.0461
  28   1.0000     -10.177039      -276.9313
  29   1.0000     -10.175572      -276.8914
  30   1.0000      -0.869146       -23.6507
  31   1.0000      -0.862786       -23.4776
  32   1.0000      -0.861063       -23.4307
  33   1.0000      -0.814376       -22.1603
  34   1.0000      -0.796769       -21.6812
  35   1.0000      -0.794295       -21.6139
  36   1.0000      -0.781411       -21.2633
  37   1.0000      -0.771890       -21.0042
  38   1.0000      -0.763785       -20.7836
  39   1.0000      -0.750587       -20.4245
  40   1.0000      -0.749009       -20.3816
  41   1.0000      -0.735773       -20.0214
  42   1.0000      -0.723588       -19.6898
  43   1.0000      -0.708050       -19.2670
  44   1.0000      -0.694624       -18.9017
  45   1.0000      -0.653093       -17.7716
  46   1.0000      -0.644561       -17.5394
  47   1.0000      -0.621654       -16.9161
  48   1.0000      -0.609041       -16.5729
  49   1.0000      -0.608603       -16.5609
  50   1.0000      -0.607706       -16.5365
  51   1.0000      -0.606903       -16.5147
  52   1.0000      -0.589316       -16.0361
  53   1.0000      -0.577947       -15.7267
  54   1.0000      -0.557691       -15.1755
  55   1.0000      -0.539789       -14.6884
  56   1.0000      -0.533951       -14.5296
  57   1.0000      -0.503375       -13.6975
  58   1.0000      -0.502107       -13.6630
  59   1.0000      -0.479574       -13.0499
  60   1.0000      -0.477577       -12.9955
  61   1.0000      -0.473758       -12.8916
  62   1.0000      -0.469474       -12.7750
  63   1.0000      -0.458575       -12.4785
  64   1.0000      -0.457292       -12.4435
  65   1.0000      -0.455702       -12.4003
  66   1.0000      -0.436121       -11.8675
  67   1.0000      -0.434382       -11.8201
  68   1.0000      -0.428681       -11.6650
  69   1.0000      -0.427160       -11.6236
  70   1.0000      -0.424525       -11.5519
  71   1.0000      -0.423786       -11.5318
  72   1.0000      -0.422445       -11.4953
  73   1.0000      -0.418862       -11.3978
  74   1.0000      -0.410680       -11.1752
  75   1.0000      -0.396361       -10.7855
  76   1.0000      -0.390571       -10.6280
  77   1.0000      -0.382537       -10.4094
  78   1.0000      -0.379997       -10.3402
  79   1.0000      -0.375291       -10.2122
  80   1.0000      -0.371924       -10.1206
  81   1.0000      -0.363546        -9.8926
  82   1.0000      -0.361227        -9.8295
  83   1.0000      -0.359278        -9.7765
  84   1.0000      -0.354507        -9.6466
  85   1.0000      -0.350311        -9.5324
  86   1.0000      -0.350028        -9.5247
  87   1.0000      -0.348623        -9.4865
  88   1.0000      -0.337553        -9.1853
  89   1.0000      -0.331712        -9.0263
  90   1.0000      -0.330600        -8.9961
  91   1.0000      -0.328476        -8.9383
  92   1.0000      -0.326927        -8.8961
  93   1.0000      -0.322645        -8.7796
  94   1.0000      -0.321237        -8.7413
  95   1.0000      -0.303319        -8.2537
  96   1.0000      -0.274304        -7.4642
  97   1.0000      -0.267588        -7.2814
  98   1.0000      -0.265756        -7.2316
  99   1.0000      -0.258519        -7.0347
 100   1.0000      -0.258244        -7.0272
 101   1.0000      -0.256534        -6.9806
 102   1.0000      -0.234160        -6.3718
 103   1.0000      -0.200727        -5.4621
 104   0.0000      -0.084783        -2.3071
 105   0.0000      -0.055270        -1.5040
 106   0.0000      -0.025380        -0.6906
 107   0.0000      -0.010150        -0.2762
 108   0.0000      -0.008083        -0.2200

MULLIKEN ATOMIC CHARGES AND SPIN POPULATIONS
--------------------------------------------
   0 C :    0.140080    0.099506
   1 C :    0.281256   -0.066185
   2 C :    0.270236    0.031751
   3 C :   -0.178441    0.223121
   4 C :    0.072412   -0.169420
   5 C :   -0.028707    0.221761
   6 C :   -0.142816   -0.106782
   7 C :   -0.086572    0.232384
   8 C :    0.008105   -0.118031
   9 H :   -0.053881   -0.009242
  10 H :   -0.055207    0.004289
  11 C :   -0.100662    0.697074
  12 H :   -0.026256   -0.030300
  13 C :    0.034634   -0.047805
  14 H :    0.029103    0.031313
  15 H :    0.029155    0.031113
  16 C :   -0.039302    0.002263
  17 H :    0.012419    0.000480
  18 H :    0.012412    0.000460
  19 C :    0.006025   -0.000179
  20 H :    0.017597    0.000152
  21 H :    0.017615    0.000153
  22 C :    0.039743   -0.018546
  23 H :    0.031905    0.009886
  24 H :    0.031908    0.009902
  25 C :   -0.034190    0.000864
  26 H :    0.016797    0.000168
  27 H :    0.016752    0.000170
  28 C :   -0.024806    0.000024
  29 H :    0.005440    0.000052
  30 H :    0.005448    0.000052
  31 C :    0.003247   -0.000080
  32 H :    0.017318    0.000023
  33 H :    0.017306    0.000023
  34 C :    0.126669   -0.047560
  35 H :    0.013304   -0.000200
  36 H :    0.012544   -0.000005
  37 C :   -0.254680    0.010620
  38 C :    0.030066   -0.010979
  39 C :    0.040225    0.005658
  40 C :    0.032783   -0.011647
  41 C :    0.039799    0.005650
  42 C :    0.028041   -0.010955
  43 H :   -0.027086    0.000528
  44 H :   -0.027115   -0.000222
  45 H :   -0.040306    0.000470
  46 H :   -0.039345    0.000447
  47 H :   -0.027040   -0.000222
  48 C :   -0.258220   -0.023274
  49 C :    0.024964    0.026220
  50 C :    0.039837   -0.013786
  51 C :    0.032422    0.028785
  52 C :    0.040444   -0.013773
  53 C :    0.029989    0.026303
  54 H :   -0.027699   -0.001319
  55 H :   -0.027580    0.000544
  56 H :   -0.039193   -0.001092
  57 H :   -0.040984   -0.001151
  58 H :   -0.027910    0.000545
Sum of atomic charges         :   -0.0000000

LOEWDIN ATOMIC CHARGES AND SPIN POPULATIONS
-------------------------------------------
   0 C :   -0.022905    0.072984
   1 C :   -0.017082   -0.029674
   2 C :   -0.016092    0.016713
   3 C :   -0.039502    0.159602
   4 C :   -0.040031   -0.072066
   5 C :    0.009344    0.167347
   6 C :   -0.052941   -0.059025
   7 C :   -0.005783    0.171433
   8 C :   -0.008680   -0.064494
   9 H :    0.028058    0.000880
  10 H :    0.029465   -0.000458
  11 C :    0.011951    0.571586
  12 H :    0.021226    0.003380
  13 C :   -0.054564    0.005371
  14 H :    0.034358    0.024437
  15 H :    0.034309    0.024266
  16 C :   -0.046139    0.001164
  17 H :    0.025561    0.000305
  18 H :    0.025543    0.000294
  19 C :   -0.067736   -0.000042
  20 H :    0.025592    0.000245
  21 H :    0.025591    0.000247
  22 C :   -0.035562    0.002137
  23 H :    0.038774    0.007777
  24 H :    0.038783    0.007789
  25 C :   -0.043489    0.000152
  26 H :    0.024548    0.000053
  27 H :    0.024552    0.000053
  28 C :   -0.047292    0.000017
  29 H :    0.023809    0.000088
  30 H :    0.023811    0.000088
  31 C :   -0.067648   -0.000038
  32 H :    0.025256    0.000016
  33 H :    0.025254    0.000016
  34 C :   -0.023119   -0.034139
  35 H :    0.028212   -0.000110
  36 H :    0.027380   -0.000007
  37 C :   -0.053362    0.004821
  38 C :   -0.001360   -0.008477
  39 C :   -0.023831    0.003345
  40 C :   -0.021497   -0.009018
  41 C :   -0.023970    0.003341
  42 C :   -0.002337   -0.008466
  43 H :    0.028205   -0.000036
  44 H :    0.029373    0.000014
  45 H :    0.030077   -0.000012
  46 H :    0.030014   -0.000018
  47 H :    0.029431    0.000014
  48 C :   -0.053301   -0.010555
  49 C :   -0.003187    0.020249
  50 C :   -0.024296   -0.008119
  51 C :   -0.022427    0.022259
  52 C :   -0.024186   -0.008101
  53 C :   -0.001773    0.020308
  54 H :    0.027890    0.000087
  55 H :    0.029233   -0.000034
  56 H :    0.029484    0.000024
  57 H :    0.029825    0.000020
  58 H :    0.029183   -0.000035

  Mayer bond orders larger than 0.100000
B(  0-C ,  1-C ) :   1.7111 B(  0-C , 48-C ) :   0.9339 B(  1-C ,  3-C ) :   0.8748
B(  1-C , 48-C ) :  -0.1835 B(  2-C ,  6-C ) :   0.8755 B(  2-C , 34-C ) :   1.7523
B(  2-C , 37-C ) :  -0.1773 B(  3-C ,  4-C ) :   1.2779 B(  3-C ,  8-C ) :   1.3995
B(  4-C ,  5-C ) :   1.2899 B(  4-C , 11-C ) :   1.3814 B(  5-C ,  6-C ) :   1.4491
B(  5-C ,  9-H ) :   0.9174 B(  6-C ,  7-C ) :   1.3431 B(  7-C ,  8-C ) :   1.4281
B(  7-C , 22-C ) :   1.0957 B(  8-C , 10-H ) :   0.9197 B( 11-C , 12-H ) :   0.8983
B( 11-C , 13-C ) :   1.0842 B( 13-C , 14-H ) :   0.9115 B( 13-C , 15-H ) :   0.9114
B( 13-C , 16-C ) :   1.0715 B( 16-C , 17-H ) :   0.9438 B( 16-C , 18-H ) :   0.9437
B( 16-C , 19-C ) :   1.1066 B( 19-C , 20-H ) :   0.9653 B( 19-C , 21-H ) :   0.9653
B( 19-C , 35-H ) :   0.9608 B( 22-C , 23-H ) :   0.8956 B( 22-C , 24-H ) :   0.8956
B( 22-C , 25-C ) :   1.1045 B( 25-C , 26-H ) :   0.9292 B( 25-C , 27-H ) :   0.9292
B( 25-C , 28-C ) :   1.0747 B( 28-C , 29-H ) :   0.9410 B( 28-C , 30-H ) :   0.9410
B( 28-C , 31-C ) :   1.1062 B( 31-C , 32-H ) :   0.9662 B( 31-C , 33-H ) :   0.9662
B( 31-C , 36-H ) :   0.9617 B( 34-C , 37-C ) :   0.9315 B( 37-C , 38-C ) :   1.4428
B( 37-C , 42-C ) :   1.4388 B( 38-C , 39-C ) :   1.4704 B( 38-C , 45-H ) :   0.9400
B( 39-C , 40-C ) :   1.4445 B( 39-C , 47-H ) :   0.9379 B( 40-C , 41-C ) :   1.4441
B( 40-C , 43-H ) :   0.9432 B( 41-C , 42-C ) :   1.4705 B( 41-C , 44-H ) :   0.9379
B( 42-C , 46-H ) :   0.9404 B( 48-C , 49-C ) :   1.4366 B( 48-C , 53-C ) :   1.4391
B( 49-C , 50-C ) :   1.4716 B( 49-C , 56-H ) :   0.9404 B( 50-C , 51-C ) :   1.4428
B( 50-C , 58-H ) :   0.9378 B( 51-C , 52-C ) :   1.4427 B( 51-C , 54-H ) :   0.9431
B( 52-C , 53-C ) :   1.4726 B( 52-C , 55-H ) :   0.9377 B( 53-C , 57-H ) :   0.9397

FINAL SINGLE POINT ENERGY     -1159.835760706352

DIPOLE MOMENT
-------------
                                X             Y             Z
Electronic contribution:     -0.50656       2.18353       0.02572
Nuclear contribution   :      0.63614      -2.16497      -0.02623
                        -----------------------------------------
Total Dipole Moment    :      0.12958       0.01856      -0.00051
                        -----------------------------------------
Magnitude (a.u.)       :      0.13090
Magnitude (Debye)      :      0.33273

Rotational constants in cm-1:     0.005965     0.001994     0.001497
Rotational constants in MHz :   178.839864    59.767525    44.884240

CHEMICAL SHIELDING SUMMARY (ppm)  --  Orbital contribution
----------------------------------------------------------

  Nucleus  Element    Isotropic     Anisotropy
  -------  -------  ------------   ------------
      9       H           85.638         80.626
     10       H           91.516         69.989
     12       H           74.484         30.534
     14       H           85.269         28.892
     15       H           85.610         28.604
     17       H           43.027         34.627
     18       H           42.687         34.529
     20       H           28.149         23.749
     21       H           27.836         23.948
     23       H           85.415         55.805
     24       H           85.352         55.831
     26       H           94.982         28.281
     27       H           95.049         28.294
     29       H           40.840         35.471
     30       H           40.775         35.504
     32       H           34.594         23.188
     33       H           34.565         23.170
     35       H          -59.419         17.258
     36       H          -57.672         15.666
     43       H         -173.750       -225.657
     44       H          -81.516          0.732
     45       H          102.629         21.085
     46       H          101.287         23.831
     47       H          -80.537          1.422
     54       H         -172.670       -218.720
     55       H          -73.916          2.745
     56       H           94.321         21.935
     57       H          109.304         21.735
     58       H          -86.883         -1.477

                             ****ORCA TERMINATED NORMALLY****
TOTAL RUN TIME: 0 days 2 hours 51 minutes 32 seconds 592 msec
