                         Program Version 5.0.4 -  RELEASE  -
|  1> ! B3LYP EPR-II AUTOAUX
|  2> %pal nprocs 16 end
|  3> *XYZFile 0 2 opt.xyz
|  4> %EPRNMR
|  5>         GTENSOR   TRUE
|  6>         NUCLEI    = ALL H {SHIFT, AISO, ADIP, AORB}
|  7>         ORI       GIAO
|  8> END
|  9>
| 10>                          ****END OF INPUT****

CARTESIAN COORDINATES (ANGSTROEM)
---------------------------------
  C     -4.058780   -0.114027   -0.000729
  C     -2.837067   -0.037217    0.000458
  C      2.839456    0.025128    0.001303
  C     -1.417730    0.016651    0.000204
  C     -0.712128    1.278604   -0.003269
  C      0.709687    1.211983   -0.002475
  C      1.411298    0.003549    0.000975
  C      0.702255   -1.241266    0.003983
  C     -0.691408   -1.190779    0.003621
  H      1.285445    2.137757   -0.004762
  H     -1.264663   -2.117693    0.006030
  C     -1.396749    2.512534   -0.007530
  H     -2.489374    2.477379   -0.008222
  C     -0.740034    3.860790   -0.011243
  H     -0.071952    3.959921    0.869257
  H     -0.065383    3.951892   -0.887544
  C     -1.737595    5.026485   -0.020436
  H     -2.392913    4.932401   -0.905600
  H     -2.399942    4.940503    0.860321
  C     -1.059047    6.397666   -0.024026
  H     -0.415065    6.523869   -0.911556
  H     -0.422198    6.532067    0.867440
  C      1.476339   -2.542840    0.007434
  H      2.155053   -2.543120   -0.866126
  H      2.153685   -2.539371    0.882056
  C      0.658132   -3.836796    0.009521
  H     -0.005723   -3.860159    0.893279
  H     -0.004355   -3.863766   -0.875166
  C      1.539543   -5.091841    0.012796
  H      2.206455   -5.070185   -0.869111
  H      2.204866   -5.066716    0.895810
  C      0.733887   -6.393511    0.014637
  H      0.084970   -6.463882   -0.875410
  H      0.082960   -6.460115    0.903504
  C      4.061356    0.051700    0.002498
  H     -1.799216    7.213950   -0.030767
  H      1.392930   -7.276874    0.017252
  C      5.489033    0.088671    0.002622
  C      6.175837    1.322543    0.001416
  C      7.570008    1.354492    0.001416
  C      8.304589    0.163225    0.002633
  C      7.634082   -1.065321    0.003864
  C      6.240226   -1.107100    0.003878
  H      9.396716    0.192185    0.002617
  H      8.202215   -1.998703    0.004810
  H      5.600673    2.250353    0.000473
  H      5.715229   -2.064211    0.004815
  H      8.088008    2.316597    0.000461
  C     -5.481361   -0.217167   -0.000792
  C     -6.291506    0.940362   -0.001962
  C     -7.681432    0.829777   -0.001873
  C     -8.291180   -0.430157   -0.000632
  C     -7.498648   -1.583951    0.000528
  C     -6.108081   -1.483701    0.000446
  H     -9.380565   -0.512687   -0.000545
  H     -7.968746   -2.570377    0.001498
  H     -5.815246    1.922629   -0.002861
  H     -5.488129   -2.382218    0.001345
  H     -8.294683    1.734189   -0.002759

 Total Charge           Charge          ....    0
 Multiplicity           Mult            ....    2
 Number of Electrons    NEL             ....  209
 Basis Dimension        Dim             ....  713

ORBITAL ENERGIES
----------------
                 SPIN UP ORBITALS
  NO   OCC          E(Eh)            E(eV)
   0   1.0000     -10.226388      -278.2742
   1   1.0000     -10.225759      -278.2571
   2   1.0000     -10.221434      -278.1394
   3   1.0000     -10.220154      -278.1045
   4   1.0000     -10.209645      -277.8186
   5   1.0000     -10.206181      -277.7243
   6   1.0000     -10.204803      -277.6868
   7   1.0000     -10.204591      -277.6810
   8   1.0000     -10.204433      -277.6767
   9   1.0000     -10.203874      -277.6615
  10   1.0000     -10.203852      -277.6609
  11   1.0000     -10.203682      -277.6563
  12   1.0000     -10.203612      -277.6544
  13   1.0000     -10.203442      -277.6498
  14   1.0000     -10.202529      -277.6249
  15   1.0000     -10.202354      -277.6202
  16   1.0000     -10.201226      -277.5895
  17   1.0000     -10.200755      -277.5766
  18   1.0000     -10.199542      -277.5437
  19   1.0000     -10.198890      -277.5259
  20   1.0000     -10.197516      -277.4885
  21   1.0000     -10.196568      -277.4627
  22   1.0000     -10.194811      -277.4149
  23   1.0000     -10.189147      -277.2608
  24   1.0000     -10.187118      -277.2056
  25   1.0000     -10.184850      -277.1438
  26   1.0000     -10.182293      -277.0743
  27   1.0000     -10.181870      -277.0628
  28   1.0000     -10.174898      -276.8731
  29   1.0000     -10.172995      -276.8213
  30   1.0000      -0.871663       -23.7192
  31   1.0000      -0.862705       -23.4754
  32   1.0000      -0.861724       -23.4487
  33   1.0000      -0.818025       -22.2596
  34   1.0000      -0.798199       -21.7201
  35   1.0000      -0.794371       -21.6159
  36   1.0000      -0.782208       -21.2850
  37   1.0000      -0.772526       -21.0215
  38   1.0000      -0.764757       -20.8101
  39   1.0000      -0.750795       -20.4302
  40   1.0000      -0.749854       -20.4046
  41   1.0000      -0.737398       -20.0656
  42   1.0000      -0.725617       -19.7450
  43   1.0000      -0.709735       -19.3129
  44   1.0000      -0.695532       -18.9264
  45   1.0000      -0.654935       -17.8217
  46   1.0000      -0.646157       -17.5828
  47   1.0000      -0.623318       -16.9614
  48   1.0000      -0.612637       -16.6707
  49   1.0000      -0.609254       -16.5786
  50   1.0000      -0.608885       -16.5686
  51   1.0000      -0.608018       -16.5450
  52   1.0000      -0.589785       -16.0489
  53   1.0000      -0.578824       -15.7506
  54   1.0000      -0.560256       -15.2453
  55   1.0000      -0.541356       -14.7310
  56   1.0000      -0.535727       -14.5779
  57   1.0000      -0.506511       -13.7829
  58   1.0000      -0.503944       -13.7130
  59   1.0000      -0.480810       -13.0835
  60   1.0000      -0.478896       -13.0314
  61   1.0000      -0.474793       -12.9198
  62   1.0000      -0.469898       -12.7866
  63   1.0000      -0.461906       -12.5691
  64   1.0000      -0.456662       -12.4264
  65   1.0000      -0.455532       -12.3957
  66   1.0000      -0.437355       -11.9010
  67   1.0000      -0.435917       -11.8619
  68   1.0000      -0.430194       -11.7062
  69   1.0000      -0.427956       -11.6453
  70   1.0000      -0.425109       -11.5678
  71   1.0000      -0.424821       -11.5600
  72   1.0000      -0.423870       -11.5341
  73   1.0000      -0.421176       -11.4608
  74   1.0000      -0.410665       -11.1748
  75   1.0000      -0.397807       -10.8249
  76   1.0000      -0.396782       -10.7970
  77   1.0000      -0.383709       -10.4413
  78   1.0000      -0.380897       -10.3647
  79   1.0000      -0.377267       -10.2660
  80   1.0000      -0.374261       -10.1842
  81   1.0000      -0.363953        -9.9037
  82   1.0000      -0.362302        -9.8587
  83   1.0000      -0.360768        -9.8170
  84   1.0000      -0.355277        -9.6676
  85   1.0000      -0.353085        -9.6079
  86   1.0000      -0.351330        -9.5602
  87   1.0000      -0.350257        -9.5310
  88   1.0000      -0.338827        -9.2200
  89   1.0000      -0.332007        -9.0344
  90   1.0000      -0.331768        -9.0279
  91   1.0000      -0.330549        -8.9947
  92   1.0000      -0.326595        -8.8871
  93   1.0000      -0.322271        -8.7694
  94   1.0000      -0.321042        -8.7360
  95   1.0000      -0.305883        -8.3235
  96   1.0000      -0.278327        -7.5737
  97   1.0000      -0.271816        -7.3965
  98   1.0000      -0.268467        -7.3053
  99   1.0000      -0.267065        -7.2672
 100   1.0000      -0.258628        -7.0376
 101   1.0000      -0.258157        -7.0248
 102   1.0000      -0.236541        -6.4366
 103   1.0000      -0.208698        -5.6790
 104   1.0000      -0.169577        -4.6144
 105   0.0000      -0.065415        -1.7800
 106   0.0000      -0.029641        -0.8066
 107   0.0000      -0.013848        -0.3768
 108   0.0000      -0.013140        -0.3576
 109   0.0000       0.002196         0.0598

                 SPIN DOWN ORBITALS
  NO   OCC          E(Eh)            E(eV)
   0   1.0000     -10.226289      -278.2715
   1   1.0000     -10.226076      -278.2657
   2   1.0000     -10.221632      -278.1447
   3   1.0000     -10.218108      -278.0489
   4   1.0000     -10.208571      -277.7893
   5   1.0000     -10.206296      -277.7274
   6   1.0000     -10.204879      -277.6889
   7   1.0000     -10.204682      -277.6835
   8   1.0000     -10.204534      -277.6795
   9   1.0000     -10.203837      -277.6605
  10   1.0000     -10.203677      -277.6562
  11   1.0000     -10.203570      -277.6533
  12   1.0000     -10.203345      -277.6471
  13   1.0000     -10.203117      -277.6409
  14   1.0000     -10.202636      -277.6278
  15   1.0000     -10.202388      -277.6211
  16   1.0000     -10.201210      -277.5890
  17   1.0000     -10.199978      -277.5555
  18   1.0000     -10.199077      -277.5310
  19   1.0000     -10.197863      -277.4980
  20   1.0000     -10.196603      -277.4637
  21   1.0000     -10.196306      -277.4556
  22   1.0000     -10.189804      -277.2787
  23   1.0000     -10.187316      -277.2110
  24   1.0000     -10.186832      -277.1978
  25   1.0000     -10.184812      -277.1428
  26   1.0000     -10.182293      -277.0743
  27   1.0000     -10.181868      -277.0627
  28   1.0000     -10.174907      -276.8733
  29   1.0000     -10.172996      -276.8213
  30   1.0000      -0.868464       -23.6321
  31   1.0000      -0.862737       -23.4763
  32   1.0000      -0.861250       -23.4358
  33   1.0000      -0.813320       -22.1316
  34   1.0000      -0.796251       -21.6671
  35   1.0000      -0.792564       -21.5668
  36   1.0000      -0.781809       -21.2741
  37   1.0000      -0.771697       -20.9989
  38   1.0000      -0.762765       -20.7559
  39   1.0000      -0.750920       -20.4336
  40   1.0000      -0.749508       -20.3952
  41   1.0000      -0.735661       -20.0184
  42   1.0000      -0.722764       -19.6674
  43   1.0000      -0.708551       -19.2806
  44   1.0000      -0.693389       -18.8681
  45   1.0000      -0.651980       -17.7413
  46   1.0000      -0.644779       -17.5453
  47   1.0000      -0.622172       -16.9301
  48   1.0000      -0.609305       -16.5800
  49   1.0000      -0.608794       -16.5661
  50   1.0000      -0.608028       -16.5453
  51   1.0000      -0.607304       -16.5256
  52   1.0000      -0.588910       -16.0251
  53   1.0000      -0.577201       -15.7064
  54   1.0000      -0.557436       -15.1686
  55   1.0000      -0.540961       -14.7203
  56   1.0000      -0.535189       -14.5632
  57   1.0000      -0.503543       -13.7021
  58   1.0000      -0.502159       -13.6645
  59   1.0000      -0.480633       -13.0787
  60   1.0000      -0.477817       -13.0021
  61   1.0000      -0.473770       -12.8919
  62   1.0000      -0.469064       -12.7639
  63   1.0000      -0.458568       -12.4783
  64   1.0000      -0.456709       -12.4277
  65   1.0000      -0.455334       -12.3903
  66   1.0000      -0.437096       -11.8940
  67   1.0000      -0.435554       -11.8520
  68   1.0000      -0.428694       -11.6653
  69   1.0000      -0.426373       -11.6022
  70   1.0000      -0.425041       -11.5659
  71   1.0000      -0.423943       -11.5361
  72   1.0000      -0.423603       -11.5268
  73   1.0000      -0.418646       -11.3919
  74   1.0000      -0.410185       -11.1617
  75   1.0000      -0.395678       -10.7670
  76   1.0000      -0.390507       -10.6262
  77   1.0000      -0.382290       -10.4026
  78   1.0000      -0.379847       -10.3362
  79   1.0000      -0.374938       -10.2026
  80   1.0000      -0.371627       -10.1125
  81   1.0000      -0.362828        -9.8730
  82   1.0000      -0.362192        -9.8557
  83   1.0000      -0.360535        -9.8107
  84   1.0000      -0.354474        -9.6457
  85   1.0000      -0.351349        -9.5607
  86   1.0000      -0.350129        -9.5275
  87   1.0000      -0.350088        -9.5264
  88   1.0000      -0.336561        -9.1583
  89   1.0000      -0.331237        -9.0134
  90   1.0000      -0.330608        -8.9963
  91   1.0000      -0.328374        -8.9355
  92   1.0000      -0.326216        -8.8768
  93   1.0000      -0.321511        -8.7488
  94   1.0000      -0.320689        -8.7264
  95   1.0000      -0.303593        -8.2612
  96   1.0000      -0.274513        -7.4699
  97   1.0000      -0.268325        -7.3015
  98   1.0000      -0.266624        -7.2552
  99   1.0000      -0.258980        -7.0472
 100   1.0000      -0.258064        -7.0223
 101   1.0000      -0.257172        -6.9980
 102   1.0000      -0.234738        -6.3876
 103   1.0000      -0.201400        -5.4804
 104   0.0000      -0.085731        -2.3329
 105   0.0000      -0.057161        -1.5554
 106   0.0000      -0.028056        -0.7634
 107   0.0000      -0.014147        -0.3850
 108   0.0000      -0.012331        -0.3356

MULLIKEN ATOMIC CHARGES AND SPIN POPULATIONS
--------------------------------------------
   0 C :   -0.307302    0.092178
   1 C :   -0.415698   -0.061603
   2 C :   -0.422084    0.021898
   3 C :    0.504242    0.201552
   4 C :    0.380985   -0.134417
   5 C :   -0.453237    0.204764
   6 C :    0.559891   -0.085409
   7 C :    0.243642    0.216278
   8 C :   -0.394348   -0.105631
   9 H :    0.129602   -0.010824
  10 H :    0.131308    0.004774
  11 C :   -0.263026    0.688337
  12 H :    0.125252   -0.036336
  13 C :   -0.269073   -0.045188
  14 H :    0.150071    0.030712
  15 H :    0.149816    0.030544
  16 C :   -0.282907    0.002206
  17 H :    0.152514   -0.000164
  18 H :    0.152353   -0.000160
  19 C :   -0.507892   -0.000759
  20 H :    0.157443    0.000175
  21 H :    0.157441    0.000175
  22 C :   -0.354389   -0.016560
  23 H :    0.149915    0.010516
  24 H :    0.149952    0.010535
  25 C :   -0.268009    0.000887
  26 H :    0.139427    0.000178
  27 H :    0.139498    0.000178
  28 C :   -0.254638   -0.000230
  29 H :    0.141563    0.000043
  30 H :    0.141586    0.000043
  31 C :   -0.508921   -0.000083
  32 H :    0.157923    0.000025
  33 H :    0.157910    0.000025
  34 C :   -0.289023   -0.037279
  35 H :    0.144555   -0.000166
  36 H :    0.142419   -0.000006
  37 C :    0.592124    0.006225
  38 C :   -0.282233   -0.007967
  39 C :   -0.097887    0.003366
  40 C :   -0.121284   -0.008789
  41 C :   -0.102186    0.003355
  42 C :   -0.273398   -0.007984
  43 H :    0.105547    0.000420
  44 H :    0.105028   -0.000124
  45 H :    0.118593    0.000356
  46 H :    0.118209    0.000356
  47 H :    0.105013   -0.000123
  48 C :    0.598558   -0.017610
  49 C :   -0.283283    0.023289
  50 C :   -0.098643   -0.011851
  51 C :   -0.123560    0.026930
  52 C :   -0.099691   -0.011858
  53 C :   -0.278048    0.023617
  54 H :    0.105241   -0.001501
  55 H :    0.104756    0.000548
  56 H :    0.115604   -0.001184
  57 H :    0.118274   -0.001233
  58 H :    0.104504    0.000551
Sum of atomic charges         :   -0.0000000

LOEWDIN ATOMIC CHARGES AND SPIN POPULATIONS
-------------------------------------------
   0 C :   -0.038489    0.069394
   1 C :   -0.027862   -0.026714
   2 C :   -0.029952    0.012394
   3 C :   -0.054291    0.158427
   4 C :   -0.067749   -0.069407
   5 C :    0.007121    0.163230
   6 C :   -0.069273   -0.055327
   7 C :   -0.043171    0.170738
   8 C :   -0.011670   -0.061763
   9 H :    0.061489    0.001158
  10 H :    0.063037   -0.000557
  11 C :   -0.011316    0.568576
  12 H :    0.059788    0.003985
  13 C :   -0.087723    0.003529
  14 H :    0.056694    0.025037
  15 H :    0.056613    0.024886
  16 C :   -0.094145    0.000985
  17 H :    0.044827   -0.000061
  18 H :    0.044789   -0.000061
  19 C :   -0.084313   -0.000123
  20 H :    0.036674    0.000213
  21 H :    0.036674    0.000214
  22 C :   -0.049308    0.001590
  23 H :    0.061715    0.008327
  24 H :    0.061722    0.008339
  25 C :   -0.084637    0.000186
  26 H :    0.047091    0.000008
  27 H :    0.047114    0.000008
  28 C :   -0.096470    0.000007
  29 H :    0.043364    0.000061
  30 H :    0.043366    0.000061
  31 C :   -0.085013   -0.000032
  32 H :    0.036447    0.000016
  33 H :    0.036447    0.000016
  34 C :   -0.032668   -0.029487
  35 H :    0.034526   -0.000082
  36 H :    0.033782   -0.000006
  37 C :   -0.072526    0.003131
  38 C :   -0.016761   -0.006589
  39 C :   -0.045570    0.001972
  40 C :   -0.045706   -0.007062
  41 C :   -0.045920    0.001969
  42 C :   -0.017137   -0.006576
  43 H :    0.051615   -0.000078
  44 H :    0.052738    0.000031
  45 H :    0.058378   -0.000045
  46 H :    0.058136   -0.000045
  47 H :    0.052802    0.000031
  48 C :   -0.073659   -0.009455
  49 C :   -0.018692    0.018921
  50 C :   -0.045793   -0.007171
  51 C :   -0.046479    0.021091
  52 C :   -0.045582   -0.007148
  53 C :   -0.017670    0.019099
  54 H :    0.051436    0.000146
  55 H :    0.052731   -0.000059
  56 H :    0.057447    0.000064
  57 H :    0.058320    0.000065
  58 H :    0.052661   -0.000060

  Mayer bond orders larger than 0.100000
B(  0-C ,  1-C ) :   2.4279 B(  0-C , 48-C ) :   1.0265 B(  1-C ,  3-C ) :   0.7944
B(  2-C ,  6-C ) :   0.7597 B(  2-C , 34-C ) :   2.4847 B(  3-C ,  4-C ) :   1.2789
B(  3-C ,  7-C ) :   0.1102 B(  3-C ,  8-C ) :   1.4367 B(  4-C ,  5-C ) :   1.2225
B(  4-C ,  6-C ) :   0.1204 B(  4-C , 11-C ) :   1.2966 B(  5-C ,  6-C ) :   1.4953
B(  5-C ,  9-H ) :   0.9708 B(  6-C ,  7-C ) :   1.3373 B(  6-C ,  8-C ) :   0.1134
B(  7-C ,  8-C ) :   1.4142 B(  7-C , 22-C ) :   0.9634 B(  8-C , 10-H ) :   0.9724
B( 11-C , 12-H ) :   0.9831 B( 11-C , 13-C ) :   1.0005 B( 13-C , 14-H ) :   0.9550
B( 13-C , 15-H ) :   0.9549 B( 13-C , 16-C ) :   0.9823 B( 16-C , 17-H ) :   0.9721
B( 16-C , 18-H ) :   0.9720 B( 16-C , 19-C ) :   0.9614 B( 19-C , 20-H ) :   0.9728
B( 19-C , 21-H ) :   0.9728 B( 19-C , 35-H ) :   0.9673 B( 22-C , 23-H ) :   0.9550
B( 22-C , 24-H ) :   0.9552 B( 22-C , 25-C ) :   1.0248 B( 25-C , 26-H ) :   0.9607
B( 25-C , 27-H ) :   0.9608 B( 25-C , 28-C ) :   0.9877 B( 28-C , 29-H ) :   0.9712
B( 28-C , 30-H ) :   0.9712 B( 28-C , 31-C ) :   0.9541 B( 31-C , 32-H ) :   0.9732
B( 31-C , 33-H ) :   0.9732 B( 31-C , 36-H ) :   0.9672 B( 34-C , 37-C ) :   1.0131
B( 37-C , 38-C ) :   1.3913 B( 37-C , 39-C ) :   0.1011 B( 37-C , 42-C ) :   1.3862
B( 38-C , 39-C ) :   1.4763 B( 38-C , 40-C ) :   0.1003 B( 38-C , 45-H ) :   0.9827
B( 39-C , 40-C ) :   1.4525 B( 39-C , 47-H ) :   0.9764 B( 40-C , 41-C ) :   1.4552
B( 40-C , 42-C ) :   0.1013 B( 40-C , 43-H ) :   0.9660 B( 41-C , 42-C ) :   1.4762
B( 41-C , 44-H ) :   0.9772 B( 42-C , 46-H ) :   0.9805 B( 48-C , 49-C ) :   1.3845
B( 48-C , 52-C ) :   0.1006 B( 48-C , 53-C ) :   1.3810 B( 49-C , 50-C ) :   1.4779
B( 49-C , 51-C ) :   0.1033 B( 49-C , 56-H ) :   0.9817 B( 50-C , 51-C ) :   1.4530
B( 50-C , 58-H ) :   0.9771 B( 51-C , 52-C ) :   1.4513 B( 51-C , 53-C ) :   0.1003
B( 51-C , 54-H ) :   0.9659 B( 52-C , 53-C ) :   1.4778 B( 52-C , 55-H ) :   0.9765
B( 53-C , 57-H ) :   0.9829

FINAL SINGLE POINT ENERGY     -1159.915685307338

DIPOLE MOMENT
-------------
                                X             Y             Z
Electronic contribution:     -0.48815       2.19470       0.02442
Nuclear contribution   :      0.63594      -2.16475      -0.02495
                        -----------------------------------------
Total Dipole Moment    :      0.14779       0.02996      -0.00053
                        -----------------------------------------
Magnitude (a.u.)       :      0.15080
Magnitude (Debye)      :      0.38330

Rotational constants in cm-1:     0.005965     0.001994     0.001497
Rotational constants in MHz :   178.831081    59.768381    44.884172

CHEMICAL SHIELDING SUMMARY (ppm)  --  Orbital contribution
----------------------------------------------------------

  Nucleus  Element    Isotropic     Anisotropy
  -------  -------  ------------   ------------
      9       H           24.366         12.289
     10       H           24.495         13.153
     12       H           25.249         11.886
     14       H           29.103          4.530
     15       H           29.101          4.546
     17       H           29.846          6.720
     18       H           29.845          6.740
     20       H           30.706          7.998
     21       H           30.705          7.996
     23       H           28.750          6.053
     24       H           28.751          6.043
     26       H           29.958          4.939
     27       H           29.960          4.934
     29       H           30.053          6.350
     30       H           30.053          6.348
     32       H           30.660          8.010
     33       H           30.660          8.011
     35       H           30.447         10.188
     36       H           30.445         10.402
     43       H           24.315          4.585
     44       H           24.329          5.503
     45       H           24.035          7.972
     46       H           24.014          8.080
     47       H           24.317          5.180
     54       H           24.251          4.662
     55       H           24.244          5.368
     56       H           24.078          7.868
     57       H           24.087          7.892
     58       H           24.256          5.511

                             ****ORCA TERMINATED NORMALLY****
TOTAL RUN TIME: 0 days 3 hours 10 minutes 17 seconds 182 msec
