                         Program Version 5.0.4 -  RELEASE  -
|  1> ! B3LYP EPR-II AUTOAUX
|  2> %pal nprocs 16 end
|  3> *XYZFile 0 2 opt.xyz
|  4> %EPRNMR
|  5>         GTENSOR   TRUE
|  6>         NUCLEI    = ALL H {SHIFT, AISO, ADIP, AORB}
|  7> END
|  8>
|  9>                          ****END OF INPUT****

CARTESIAN COORDINATES (ANGSTROEM)
---------------------------------
  C     -4.058780   -0.114027   -0.000729
  C     -2.837067   -0.037217    0.000458
  C      2.839456    0.025128    0.001303
  C     -1.417730    0.016651    0.000204
  C     -0.712128    1.278604   -0.003269
  C      0.709687    1.211983   -0.002475
  C      1.411298    0.003549    0.000975
  C      0.702255   -1.241266    0.003983
  C     -0.691408   -1.190779    0.003621
  H      1.285445    2.137757   -0.004762
  H     -1.264663   -2.117693    0.006030
  C     -1.396749    2.512534   -0.007530
  H     -2.489374    2.477379   -0.008222
  C     -0.740034    3.860790   -0.011243
  H     -0.071952    3.959921    0.869257
  H     -0.065383    3.951892   -0.887544
  C     -1.737595    5.026485   -0.020436
  H     -2.392913    4.932401   -0.905600
  H     -2.399942    4.940503    0.860321
  C     -1.059047    6.397666   -0.024026
  H     -0.415065    6.523869   -0.911556
  H     -0.422198    6.532067    0.867440
  C      1.476339   -2.542840    0.007434
  H      2.155053   -2.543120   -0.866126
  H      2.153685   -2.539371    0.882056
  C      0.658132   -3.836796    0.009521
  H     -0.005723   -3.860159    0.893279
  H     -0.004355   -3.863766   -0.875166
  C      1.539543   -5.091841    0.012796
  H      2.206455   -5.070185   -0.869111
  H      2.204866   -5.066716    0.895810
  C      0.733887   -6.393511    0.014637
  H      0.084970   -6.463882   -0.875410
  H      0.082960   -6.460115    0.903504
  C      4.061356    0.051700    0.002498
  H     -1.799216    7.213950   -0.030767
  H      1.392930   -7.276874    0.017252
  C      5.489033    0.088671    0.002622
  C      6.175837    1.322543    0.001416
  C      7.570008    1.354492    0.001416
  C      8.304589    0.163225    0.002633
  C      7.634082   -1.065321    0.003864
  C      6.240226   -1.107100    0.003878
  H      9.396716    0.192185    0.002617
  H      8.202215   -1.998703    0.004810
  H      5.600673    2.250353    0.000473
  H      5.715229   -2.064211    0.004815
  H      8.088008    2.316597    0.000461
  C     -5.481361   -0.217167   -0.000792
  C     -6.291506    0.940362   -0.001962
  C     -7.681432    0.829777   -0.001873
  C     -8.291180   -0.430157   -0.000632
  C     -7.498648   -1.583951    0.000528
  C     -6.108081   -1.483701    0.000446
  H     -9.380565   -0.512687   -0.000545
  H     -7.968746   -2.570377    0.001498
  H     -5.815246    1.922629   -0.002861
  H     -5.488129   -2.382218    0.001345
  H     -8.294683    1.734189   -0.002759

 Total Charge           Charge          ....    0
 Multiplicity           Mult            ....    2
 Number of Electrons    NEL             ....  209
 Basis Dimension        Dim             ....  713

ORBITAL ENERGIES
----------------
                 SPIN UP ORBITALS
  NO   OCC          E(Eh)            E(eV)
   0   1.0000     -10.227397      -278.3016
   1   1.0000     -10.225312      -278.2449
   2   1.0000     -10.222068      -278.1566
   3   1.0000     -10.219707      -278.0924
   4   1.0000     -10.209167      -277.8056
   5   1.0000     -10.206611      -277.7360
   6   1.0000     -10.204948      -277.6908
   7   1.0000     -10.204830      -277.6875
   8   1.0000     -10.204384      -277.6754
   9   1.0000     -10.203731      -277.6576
  10   1.0000     -10.203544      -277.6526
  11   1.0000     -10.203511      -277.6516
  12   1.0000     -10.203251      -277.6446
  13   1.0000     -10.203071      -277.6397
  14   1.0000     -10.202278      -277.6181
  15   1.0000     -10.202073      -277.6125
  16   1.0000     -10.201176      -277.5881
  17   1.0000     -10.200094      -277.5587
  18   1.0000     -10.199467      -277.5416
  19   1.0000     -10.198880      -277.5256
  20   1.0000     -10.197881      -277.4985
  21   1.0000     -10.196898      -277.4717
  22   1.0000     -10.194590      -277.4089
  23   1.0000     -10.189210      -277.2625
  24   1.0000     -10.186981      -277.2019
  25   1.0000     -10.184877      -277.1446
  26   1.0000     -10.182304      -277.0746
  27   1.0000     -10.181773      -277.0601
  28   1.0000     -10.175014      -276.8762
  29   1.0000     -10.173148      -276.8254
  30   1.0000      -0.871666       -23.7192
  31   1.0000      -0.862921       -23.4813
  32   1.0000      -0.861442       -23.4410
  33   1.0000      -0.818046       -22.2602
  34   1.0000      -0.798233       -21.7210
  35   1.0000      -0.794356       -21.6155
  36   1.0000      -0.782174       -21.2840
  37   1.0000      -0.772499       -21.0208
  38   1.0000      -0.764762       -20.8102
  39   1.0000      -0.750920       -20.4336
  40   1.0000      -0.749621       -20.3982
  41   1.0000      -0.737388       -20.0653
  42   1.0000      -0.725620       -19.7451
  43   1.0000      -0.709688       -19.3116
  44   1.0000      -0.695556       -18.9270
  45   1.0000      -0.654963       -17.8225
  46   1.0000      -0.646128       -17.5820
  47   1.0000      -0.623318       -16.9613
  48   1.0000      -0.612605       -16.6698
  49   1.0000      -0.609383       -16.5822
  50   1.0000      -0.608888       -16.5687
  51   1.0000      -0.607789       -16.5388
  52   1.0000      -0.589811       -16.0496
  53   1.0000      -0.578827       -15.7507
  54   1.0000      -0.560272       -15.2458
  55   1.0000      -0.541376       -14.7316
  56   1.0000      -0.535688       -14.5768
  57   1.0000      -0.506506       -13.7827
  58   1.0000      -0.503952       -13.7132
  59   1.0000      -0.480853       -13.0847
  60   1.0000      -0.478811       -13.0291
  61   1.0000      -0.474779       -12.9194
  62   1.0000      -0.469846       -12.7851
  63   1.0000      -0.461976       -12.5710
  64   1.0000      -0.456820       -12.4307
  65   1.0000      -0.455268       -12.3885
  66   1.0000      -0.437482       -11.9045
  67   1.0000      -0.435719       -11.8565
  68   1.0000      -0.430209       -11.7066
  69   1.0000      -0.427953       -11.6452
  70   1.0000      -0.425197       -11.5702
  71   1.0000      -0.424884       -11.5617
  72   1.0000      -0.423678       -11.5289
  73   1.0000      -0.421123       -11.4593
  74   1.0000      -0.410680       -11.1752
  75   1.0000      -0.397903       -10.8275
  76   1.0000      -0.396794       -10.7973
  77   1.0000      -0.383722       -10.4416
  78   1.0000      -0.380903       -10.3649
  79   1.0000      -0.377297       -10.2668
  80   1.0000      -0.374234       -10.1834
  81   1.0000      -0.363972        -9.9042
  82   1.0000      -0.362307        -9.8589
  83   1.0000      -0.360616        -9.8129
  84   1.0000      -0.355268        -9.6673
  85   1.0000      -0.353101        -9.6084
  86   1.0000      -0.351457        -9.5636
  87   1.0000      -0.350045        -9.5252
  88   1.0000      -0.338917        -9.2224
  89   1.0000      -0.331949        -9.0328
  90   1.0000      -0.331839        -9.0298
  91   1.0000      -0.330598        -8.9960
  92   1.0000      -0.326577        -8.8866
  93   1.0000      -0.322218        -8.7680
  94   1.0000      -0.321009        -8.7351
  95   1.0000      -0.305824        -8.3219
  96   1.0000      -0.278313        -7.5733
  97   1.0000      -0.271829        -7.3969
  98   1.0000      -0.268509        -7.3065
  99   1.0000      -0.266998        -7.2654
 100   1.0000      -0.258734        -7.0405
 101   1.0000      -0.257945        -7.0190
 102   1.0000      -0.236483        -6.4350
 103   1.0000      -0.208718        -5.6795
 104   1.0000      -0.169708        -4.6180
 105   0.0000      -0.065406        -1.7798
 106   0.0000      -0.029582        -0.8050
 107   0.0000      -0.013961        -0.3799
 108   0.0000      -0.012932        -0.3519
 109   0.0000       0.002227         0.0606

                 SPIN DOWN ORBITALS
  NO   OCC          E(Eh)            E(eV)
   0   1.0000     -10.227280      -278.2984
   1   1.0000     -10.225640      -278.2538
   2   1.0000     -10.221228      -278.1337
   3   1.0000     -10.218737      -278.0660
   4   1.0000     -10.209013      -277.8014
   5   1.0000     -10.205815      -277.7143
   6   1.0000     -10.205063      -277.6939
   7   1.0000     -10.204943      -277.6906
   8   1.0000     -10.204481      -277.6780
   9   1.0000     -10.203692      -277.6566
  10   1.0000     -10.203502      -277.6514
  11   1.0000     -10.203245      -277.6444
  12   1.0000     -10.202998      -277.6377
  13   1.0000     -10.202755      -277.6311
  14   1.0000     -10.202368      -277.6205
  15   1.0000     -10.202083      -277.6128
  16   1.0000     -10.201519      -277.5974
  17   1.0000     -10.200076      -277.5582
  18   1.0000     -10.198712      -277.5211
  19   1.0000     -10.197469      -277.4872
  20   1.0000     -10.196464      -277.4599
  21   1.0000     -10.196114      -277.4504
  22   1.0000     -10.189867      -277.2804
  23   1.0000     -10.187178      -277.2072
  24   1.0000     -10.187149      -277.2064
  25   1.0000     -10.184840      -277.1436
  26   1.0000     -10.182305      -277.0746
  27   1.0000     -10.181770      -277.0600
  28   1.0000     -10.175022      -276.8764
  29   1.0000     -10.173150      -276.8255
  30   1.0000      -0.868465       -23.6321
  31   1.0000      -0.862956       -23.4822
  32   1.0000      -0.860967       -23.4281
  33   1.0000      -0.813344       -22.1322
  34   1.0000      -0.796235       -21.6666
  35   1.0000      -0.792597       -21.5676
  36   1.0000      -0.781793       -21.2737
  37   1.0000      -0.771664       -20.9980
  38   1.0000      -0.762760       -20.7558
  39   1.0000      -0.751055       -20.4372
  40   1.0000      -0.749272       -20.3887
  41   1.0000      -0.735645       -20.0179
  42   1.0000      -0.722765       -19.6674
  43   1.0000      -0.708518       -19.2798
  44   1.0000      -0.693428       -18.8691
  45   1.0000      -0.651982       -17.7413
  46   1.0000      -0.644757       -17.5447
  47   1.0000      -0.622170       -16.9301
  48   1.0000      -0.609457       -16.5842
  49   1.0000      -0.608759       -16.5652
  50   1.0000      -0.607859       -16.5407
  51   1.0000      -0.607236       -16.5237
  52   1.0000      -0.588935       -16.0257
  53   1.0000      -0.577198       -15.7064
  54   1.0000      -0.557455       -15.1691
  55   1.0000      -0.540981       -14.7208
  56   1.0000      -0.535148       -14.5621
  57   1.0000      -0.503478       -13.7003
  58   1.0000      -0.502221       -13.6661
  59   1.0000      -0.480696       -13.0804
  60   1.0000      -0.477717       -12.9993
  61   1.0000      -0.473762       -12.8917
  62   1.0000      -0.469017       -12.7626
  63   1.0000      -0.458625       -12.4798
  64   1.0000      -0.456875       -12.4322
  65   1.0000      -0.455064       -12.3829
  66   1.0000      -0.437236       -11.8978
  67   1.0000      -0.435339       -11.8462
  68   1.0000      -0.428684       -11.6651
  69   1.0000      -0.426393       -11.6027
  70   1.0000      -0.425158       -11.5691
  71   1.0000      -0.423883       -11.5344
  72   1.0000      -0.423500       -11.5240
  73   1.0000      -0.418600       -11.3907
  74   1.0000      -0.410200       -11.1621
  75   1.0000      -0.395690       -10.7673
  76   1.0000      -0.390570       -10.6279
  77   1.0000      -0.382468       -10.4075
  78   1.0000      -0.379699       -10.3321
  79   1.0000      -0.374963       -10.2033
  80   1.0000      -0.371606       -10.1119
  81   1.0000      -0.362844        -9.8735
  82   1.0000      -0.362230        -9.8568
  83   1.0000      -0.360355        -9.8058
  84   1.0000      -0.354469        -9.6456
  85   1.0000      -0.351478        -9.5642
  86   1.0000      -0.350148        -9.5280
  87   1.0000      -0.349876        -9.5206
  88   1.0000      -0.336640        -9.1604
  89   1.0000      -0.331308        -9.0153
  90   1.0000      -0.330584        -8.9956
  91   1.0000      -0.328420        -8.9368
  92   1.0000      -0.326202        -8.8764
  93   1.0000      -0.321465        -8.7475
  94   1.0000      -0.320657        -8.7255
  95   1.0000      -0.303542        -8.2598
  96   1.0000      -0.274507        -7.4697
  97   1.0000      -0.268371        -7.3028
  98   1.0000      -0.266565        -7.2536
  99   1.0000      -0.259114        -7.0509
 100   1.0000      -0.258092        -7.0230
 101   1.0000      -0.256953        -6.9920
 102   1.0000      -0.234701        -6.3865
 103   1.0000      -0.201420        -5.4809
 104   0.0000      -0.085712        -2.3323
 105   0.0000      -0.057149        -1.5551
 106   0.0000      -0.028018        -0.7624
 107   0.0000      -0.014282        -0.3886
 108   0.0000      -0.012115        -0.3297

MULLIKEN ATOMIC CHARGES AND SPIN POPULATIONS
--------------------------------------------
   0 C :   -0.301999    0.092844
   1 C :   -0.420599   -0.062092
   2 C :   -0.415755    0.023637
   3 C :    0.502192    0.201738
   4 C :    0.380018   -0.135063
   5 C :   -0.452865    0.206862
   6 C :    0.560781   -0.086988
   7 C :    0.244980    0.216692
   8 C :   -0.393971   -0.106521
   9 H :    0.129527   -0.011064
  10 H :    0.131240    0.004896
  11 C :   -0.263683    0.688799
  12 H :    0.125371   -0.036382
  13 C :   -0.268987   -0.045289
  14 H :    0.150099    0.030731
  15 H :    0.149844    0.030563
  16 C :   -0.282793    0.002216
  17 H :    0.152517   -0.000167
  18 H :    0.152357   -0.000164
  19 C :   -0.508003   -0.000761
  20 H :    0.157463    0.000175
  21 H :    0.157460    0.000175
  22 C :   -0.354204   -0.016568
  23 H :    0.149791    0.010515
  24 H :    0.149828    0.010533
  25 C :   -0.267889    0.000899
  26 H :    0.139383    0.000179
  27 H :    0.139453    0.000179
  28 C :   -0.254699   -0.000230
  29 H :    0.141554    0.000043
  30 H :    0.141577    0.000043
  31 C :   -0.509176   -0.000084
  32 H :    0.157994    0.000025
  33 H :    0.157980    0.000025
  34 C :   -0.294745   -0.038955
  35 H :    0.144626   -0.000167
  36 H :    0.142465   -0.000005
  37 C :    0.589615    0.006933
  38 C :   -0.282947   -0.008560
  39 C :   -0.097021    0.003845
  40 C :   -0.120150   -0.009435
  41 C :   -0.101306    0.003837
  42 C :   -0.274031   -0.008592
  43 H :    0.105421    0.000489
  44 H :    0.104973   -0.000157
  45 H :    0.118769    0.000412
  46 H :    0.118378    0.000411
  47 H :    0.104960   -0.000156
  48 C :    0.599290   -0.018001
  49 C :   -0.283013    0.023649
  50 C :   -0.098866   -0.012152
  51 C :   -0.123105    0.027265
  52 C :   -0.099826   -0.012155
  53 C :   -0.277645    0.023963
  54 H :    0.105037   -0.001533
  55 H :    0.104571    0.000574
  56 H :    0.115369   -0.001216
  57 H :    0.118073   -0.001266
  58 H :    0.104325    0.000577
Sum of atomic charges         :   -0.0000000

LOEWDIN ATOMIC CHARGES AND SPIN POPULATIONS
-------------------------------------------
   0 C :   -0.034685    0.069954
   1 C :   -0.031544   -0.027233
   2 C :   -0.025761    0.013464
   3 C :   -0.055872    0.158623
   4 C :   -0.068632   -0.069798
   5 C :    0.007381    0.164699
   6 C :   -0.068208   -0.056281
   7 C :   -0.042020    0.170947
   8 C :   -0.011448   -0.062413
   9 H :    0.061466    0.001114
  10 H :    0.063012   -0.000531
  11 C :   -0.011778    0.568866
  12 H :    0.059818    0.003984
  13 C :   -0.087644    0.003512
  14 H :    0.056709    0.025047
  15 H :    0.056628    0.024896
  16 C :   -0.094075    0.000981
  17 H :    0.044835   -0.000062
  18 H :    0.044797   -0.000062
  19 C :   -0.084377   -0.000124
  20 H :    0.036688    0.000213
  21 H :    0.036688    0.000214
  22 C :   -0.049236    0.001607
  23 H :    0.061675    0.008330
  24 H :    0.061682    0.008342
  25 C :   -0.084592    0.000187
  26 H :    0.047077    0.000008
  27 H :    0.047100    0.000008
  28 C :   -0.096526    0.000008
  29 H :    0.043362    0.000061
  30 H :    0.043364    0.000061
  31 C :   -0.085179   -0.000032
  32 H :    0.036483    0.000016
  33 H :    0.036483    0.000016
  34 C :   -0.036635   -0.030619
  35 H :    0.034563   -0.000082
  36 H :    0.033804   -0.000006
  37 C :   -0.074517    0.003538
  38 C :   -0.017392   -0.007016
  39 C :   -0.044887    0.002282
  40 C :   -0.044769   -0.007502
  41 C :   -0.045211    0.002278
  42 C :   -0.017717   -0.007003
  43 H :    0.051586   -0.000068
  44 H :    0.052738    0.000028
  45 H :    0.058440   -0.000036
  46 H :    0.058197   -0.000036
  47 H :    0.052802    0.000028
  48 C :   -0.073005   -0.009682
  49 C :   -0.018477    0.019170
  50 C :   -0.045992   -0.007366
  51 C :   -0.046222    0.021316
  52 C :   -0.045725   -0.007344
  53 C :   -0.017344    0.019345
  54 H :    0.051337    0.000142
  55 H :    0.052629   -0.000055
  56 H :    0.057337    0.000059
  57 H :    0.058229    0.000060
  58 H :    0.052560   -0.000056

  Mayer bond orders larger than 0.100000
B(  0-C ,  1-C ) :   2.4282 B(  0-C , 48-C ) :   1.0266 B(  1-C ,  3-C ) :   0.7946
B(  2-C ,  6-C ) :   0.7603 B(  2-C , 34-C ) :   2.4845 B(  3-C ,  4-C ) :   1.2789
B(  3-C ,  7-C ) :   0.1102 B(  3-C ,  8-C ) :   1.4369 B(  4-C ,  5-C ) :   1.2227
B(  4-C ,  6-C ) :   0.1204 B(  4-C , 11-C ) :   1.2964 B(  5-C ,  6-C ) :   1.4947
B(  5-C ,  9-H ) :   0.9709 B(  6-C ,  7-C ) :   1.3373 B(  6-C ,  8-C ) :   0.1136
B(  7-C ,  8-C ) :   1.4139 B(  7-C , 22-C ) :   0.9633 B(  8-C , 10-H ) :   0.9724
B( 11-C , 12-H ) :   0.9831 B( 11-C , 13-C ) :   1.0005 B( 13-C , 14-H ) :   0.9550
B( 13-C , 15-H ) :   0.9549 B( 13-C , 16-C ) :   0.9823 B( 16-C , 17-H ) :   0.9721
B( 16-C , 18-H ) :   0.9720 B( 16-C , 19-C ) :   0.9614 B( 19-C , 20-H ) :   0.9728
B( 19-C , 21-H ) :   0.9728 B( 19-C , 35-H ) :   0.9673 B( 22-C , 23-H ) :   0.9550
B( 22-C , 24-H ) :   0.9553 B( 22-C , 25-C ) :   1.0249 B( 25-C , 26-H ) :   0.9607
B( 25-C , 27-H ) :   0.9608 B( 25-C , 28-C ) :   0.9877 B( 28-C , 29-H ) :   0.9712
B( 28-C , 30-H ) :   0.9712 B( 28-C , 31-C ) :   0.9541 B( 31-C , 32-H ) :   0.9731
B( 31-C , 33-H ) :   0.9731 B( 31-C , 36-H ) :   0.9671 B( 34-C , 37-C ) :   1.0133
B( 37-C , 38-C ) :   1.3916 B( 37-C , 39-C ) :   0.1010 B( 37-C , 42-C ) :   1.3865
B( 38-C , 39-C ) :   1.4763 B( 38-C , 40-C ) :   0.1004 B( 38-C , 45-H ) :   0.9827
B( 39-C , 40-C ) :   1.4524 B( 39-C , 47-H ) :   0.9764 B( 40-C , 41-C ) :   1.4551
B( 40-C , 42-C ) :   0.1014 B( 40-C , 43-H ) :   0.9660 B( 41-C , 42-C ) :   1.4762
B( 41-C , 44-H ) :   0.9772 B( 42-C , 46-H ) :   0.9805 B( 48-C , 49-C ) :   1.3844
B( 48-C , 52-C ) :   0.1006 B( 48-C , 53-C ) :   1.3809 B( 49-C , 50-C ) :   1.4779
B( 49-C , 51-C ) :   0.1033 B( 49-C , 56-H ) :   0.9818 B( 50-C , 51-C ) :   1.4529
B( 50-C , 58-H ) :   0.9772 B( 51-C , 52-C ) :   1.4513 B( 51-C , 53-C ) :   0.1003
B( 51-C , 54-H ) :   0.9660 B( 52-C , 53-C ) :   1.4777 B( 52-C , 55-H ) :   0.9766
B( 53-C , 57-H ) :   0.9829

FINAL SINGLE POINT ENERGY     -1159.915680581088

DIPOLE MOMENT
-------------
                                X             Y             Z
Electronic contribution:     -0.49999       2.18928       0.02440
Nuclear contribution   :      0.63594      -2.16475      -0.02495
                        -----------------------------------------
Total Dipole Moment    :      0.13595       0.02453      -0.00056
                        -----------------------------------------
Magnitude (a.u.)       :      0.13815
Magnitude (Debye)      :      0.35114

Rotational constants in cm-1:     0.005965     0.001994     0.001497
Rotational constants in MHz :   178.831081    59.768381    44.884172

CHEMICAL SHIELDING SUMMARY (ppm)  --  Orbital contribution
----------------------------------------------------------

  Nucleus  Element    Isotropic     Anisotropy
  -------  -------  ------------   ------------
      9       H           24.401         12.198
     10       H           24.480         13.201
     12       H           25.239         11.949
     14       H           29.115          4.510
     15       H           29.113          4.524
     17       H           29.815          6.705
     18       H           29.814          6.726
     20       H           30.687          8.009
     21       H           30.686          8.007
     23       H           28.780          6.019
     24       H           28.780          6.010
     26       H           29.978          4.960
     27       H           29.979          4.954
     29       H           30.080          6.357
     30       H           30.080          6.355
     32       H           30.669          7.991
     33       H           30.669          7.992
     35       H           30.413         10.226
     36       H           30.441         10.409
     43       H           24.283          4.542
     44       H           24.257          5.594
     45       H           24.030          8.038
     46       H           24.008          8.128
     47       H           24.238          5.275
     54       H           24.392          4.487
     55       H           24.331          5.236
     56       H           24.031          7.915
     57       H           24.019          7.956
     58       H           24.341          5.383

                             ****ORCA TERMINATED NORMALLY****
TOTAL RUN TIME: 0 days 3 hours 10 minutes 18 seconds 591 msec
