                         Program Version 5.0.4 -  RELEASE  -
|  1> ! B3LYP EPR-II AUTOAUX
|  2> %pal nprocs 16 end
|  3> *XYZFile 0 2 opt_EPRII.xyz
|  4> %EPRNMR
|  5>         GTENSOR   TRUE
|  6>         NUCLEI    = ALL H {SHIFT, AISO, ADIP, AORB}
|  7>         ORI       GIAO
|  8> END
|  9>
| 10>                          ****END OF INPUT****

CARTESIAN COORDINATES (ANGSTROEM)
---------------------------------
  C     -4.063411   -0.116031    0.000381
  C     -2.838031   -0.045851    0.001359
  C      2.847796    0.031502    0.002314
  C     -1.415755    0.009274    0.001097
  C     -0.713197    1.275735   -0.002065
  C      0.712165    1.217650   -0.001116
  C      1.416713    0.007055    0.001976
  C      0.711436   -1.243044    0.004484
  C     -0.686037   -1.199693    0.004134
  H      1.279389    2.141817   -0.003061
  H     -1.251249   -2.124614    0.006214
  C     -1.407695    2.509167   -0.006355
  H     -2.493810    2.470704   -0.007173
  C     -0.753515    3.865509   -0.009553
  H     -0.099756    3.970330    0.871050
  H     -0.085896    3.959684   -0.880810
  C     -1.764099    5.027728   -0.024790
  H     -2.407067    4.932102   -0.909065
  H     -2.421827    4.942656    0.849684
  C     -1.086359    6.408106   -0.027337
  H     -0.444946    6.530732   -0.907455
  H     -0.459509    6.541123    0.861725
  C      1.493589   -2.545562    0.007443
  H      2.163440   -2.545935   -0.863660
  H      2.161560   -2.543208    0.879998
  C      0.669127   -3.842482    0.008517
  H      0.012619   -3.867388    0.888486
  H      0.014369   -3.869833   -0.872689
  C      1.555057   -5.101488    0.011166
  H      2.214102   -5.082052   -0.867050
  H      2.212055   -5.079807    0.890861
  C      0.741313   -6.407351    0.011889
  H      0.098485   -6.470913   -0.873353
  H      0.095991   -6.468371    0.895491
  C      4.073016    0.052379    0.003430
  H     -1.826669    7.214571   -0.038164
  H      1.395680   -7.285258    0.014067
  C      5.504808    0.085475    0.003548
  C      6.195098    1.322267    0.002863
  C      7.594370    1.350944    0.002826
  C      8.329483    0.153179    0.003482
  C      7.652617   -1.078498    0.004192
  C      6.253539   -1.116733    0.004239
  H      9.415843    0.179317    0.003437
  H      8.215781   -2.008107    0.004693
  H      5.624765    2.246411    0.002350
  H      5.728701   -2.067423    0.004764
  H      8.112575    2.306356    0.002279
  C     -5.490595   -0.212094    0.000500
  C     -6.294857    0.954567   -0.000327
  C     -7.690441    0.851753   -0.000037
  C     -8.310216   -0.409774    0.001060
  C     -7.520554   -1.572552    0.001857
  C     -6.124408   -1.479767    0.001574
  H     -9.394221   -0.485887    0.001299
  H     -7.994313   -2.550796    0.002709
  H     -5.815023    1.928756   -0.001133
  H     -5.512229   -2.376732    0.002199
  H     -8.295757    1.754502   -0.000643

 Total Charge           Charge          ....    0
 Multiplicity           Mult            ....    2
 Number of Electrons    NEL             ....  209
 Basis Dimension        Dim             ....  713

ORBITAL ENERGIES
----------------
                 SPIN UP ORBITALS
  NO   OCC          E(Eh)            E(eV)
   0   1.0000     -10.228129      -278.3215
   1   1.0000     -10.226696      -278.2826
   2   1.0000     -10.222714      -278.1742
   3   1.0000     -10.220779      -278.1215
   4   1.0000     -10.210243      -277.8348
   5   1.0000     -10.207313      -277.7551
   6   1.0000     -10.205239      -277.6987
   7   1.0000     -10.205101      -277.6949
   8   1.0000     -10.204939      -277.6905
   9   1.0000     -10.204323      -277.6738
  10   1.0000     -10.204241      -277.6715
  11   1.0000     -10.204128      -277.6684
  12   1.0000     -10.203963      -277.6639
  13   1.0000     -10.203826      -277.6602
  14   1.0000     -10.202994      -277.6376
  15   1.0000     -10.202796      -277.6322
  16   1.0000     -10.201862      -277.6068
  17   1.0000     -10.201196      -277.5886
  18   1.0000     -10.199904      -277.5535
  19   1.0000     -10.199784      -277.5502
  20   1.0000     -10.198650      -277.5194
  21   1.0000     -10.196758      -277.4679
  22   1.0000     -10.194992      -277.4198
  23   1.0000     -10.187986      -277.2292
  24   1.0000     -10.186090      -277.1776
  25   1.0000     -10.183519      -277.1077
  26   1.0000     -10.180961      -277.0380
  27   1.0000     -10.180596      -277.0281
  28   1.0000     -10.172745      -276.8145
  29   1.0000     -10.170849      -276.7629
  30   1.0000      -0.870072       -23.6759
  31   1.0000      -0.860392       -23.4125
  32   1.0000      -0.859242       -23.3812
  33   1.0000      -0.816669       -22.2227
  34   1.0000      -0.797029       -21.6883
  35   1.0000      -0.793231       -21.5849
  36   1.0000      -0.780788       -21.2463
  37   1.0000      -0.771219       -20.9859
  38   1.0000      -0.763920       -20.7873
  39   1.0000      -0.750048       -20.4098
  40   1.0000      -0.749032       -20.3822
  41   1.0000      -0.736509       -20.0414
  42   1.0000      -0.724968       -19.7274
  43   1.0000      -0.709072       -19.2948
  44   1.0000      -0.695409       -18.9230
  45   1.0000      -0.655202       -17.8289
  46   1.0000      -0.645505       -17.5651
  47   1.0000      -0.623320       -16.9614
  48   1.0000      -0.613198       -16.6860
  49   1.0000      -0.609500       -16.5853
  50   1.0000      -0.608836       -16.5673
  51   1.0000      -0.608164       -16.5490
  52   1.0000      -0.590665       -16.0728
  53   1.0000      -0.580392       -15.7933
  54   1.0000      -0.561432       -15.2773
  55   1.0000      -0.540958       -14.7202
  56   1.0000      -0.535289       -14.5659
  57   1.0000      -0.506270       -13.7763
  58   1.0000      -0.503887       -13.7115
  59   1.0000      -0.482376       -13.1261
  60   1.0000      -0.479430       -13.0460
  61   1.0000      -0.474788       -12.9196
  62   1.0000      -0.470693       -12.8082
  63   1.0000      -0.462951       -12.5975
  64   1.0000      -0.455184       -12.3862
  65   1.0000      -0.453915       -12.3516
  66   1.0000      -0.437887       -11.9155
  67   1.0000      -0.436385       -11.8746
  68   1.0000      -0.430132       -11.7045
  69   1.0000      -0.427456       -11.6317
  70   1.0000      -0.425587       -11.5808
  71   1.0000      -0.424701       -11.5567
  72   1.0000      -0.424327       -11.5465
  73   1.0000      -0.422072       -11.4852
  74   1.0000      -0.411021       -11.1844
  75   1.0000      -0.398649       -10.8478
  76   1.0000      -0.396142       -10.7796
  77   1.0000      -0.383432       -10.4337
  78   1.0000      -0.379275       -10.3206
  79   1.0000      -0.377349       -10.2682
  80   1.0000      -0.373506       -10.1636
  81   1.0000      -0.363946        -9.9035
  82   1.0000      -0.362775        -9.8716
  83   1.0000      -0.361266        -9.8305
  84   1.0000      -0.355103        -9.6629
  85   1.0000      -0.354604        -9.6493
  86   1.0000      -0.352231        -9.5847
  87   1.0000      -0.351047        -9.5525
  88   1.0000      -0.337579        -9.1860
  89   1.0000      -0.332980        -9.0608
  90   1.0000      -0.331708        -9.0262
  91   1.0000      -0.331666        -9.0251
  92   1.0000      -0.326537        -8.8855
  93   1.0000      -0.322961        -8.7882
  94   1.0000      -0.321172        -8.7395
  95   1.0000      -0.304930        -8.2976
  96   1.0000      -0.277721        -7.5572
  97   1.0000      -0.271705        -7.3935
  98   1.0000      -0.268019        -7.2932
  99   1.0000      -0.266620        -7.2551
 100   1.0000      -0.257940        -7.0189
 101   1.0000      -0.257428        -7.0050
 102   1.0000      -0.236019        -6.4224
 103   1.0000      -0.208534        -5.6745
 104   1.0000      -0.170043        -4.6271
 105   0.0000      -0.065793        -1.7903
 106   0.0000      -0.030398        -0.8272
 107   0.0000      -0.014925        -0.4061
 108   0.0000      -0.014157        -0.3852
 109   0.0000       0.001174         0.0319

                 SPIN DOWN ORBITALS
  NO   OCC          E(Eh)            E(eV)
   0   1.0000     -10.227976      -278.3174
   1   1.0000     -10.227046      -278.2921
   2   1.0000     -10.222375      -278.1650
   3   1.0000     -10.219356      -278.0828
   4   1.0000     -10.209763      -277.8218
   5   1.0000     -10.206863      -277.7429
   6   1.0000     -10.205358      -277.7019
   7   1.0000     -10.205226      -277.6983
   8   1.0000     -10.205091      -277.6946
   9   1.0000     -10.204278      -277.6725
  10   1.0000     -10.204103      -277.6678
  11   1.0000     -10.203931      -277.6631
  12   1.0000     -10.203696      -277.6567
  13   1.0000     -10.203476      -277.6507
  14   1.0000     -10.203092      -277.6402
  15   1.0000     -10.202832      -277.6332
  16   1.0000     -10.202104      -277.6134
  17   1.0000     -10.200809      -277.5781
  18   1.0000     -10.199720      -277.5485
  19   1.0000     -10.198610      -277.5183
  20   1.0000     -10.196806      -277.4692
  21   1.0000     -10.196567      -277.4627
  22   1.0000     -10.188633      -277.2468
  23   1.0000     -10.186947      -277.2009
  24   1.0000     -10.186283      -277.1829
  25   1.0000     -10.183483      -277.1067
  26   1.0000     -10.180962      -277.0381
  27   1.0000     -10.180594      -277.0280
  28   1.0000     -10.172754      -276.8147
  29   1.0000     -10.170851      -276.7629
  30   1.0000      -0.866859       -23.5884
  31   1.0000      -0.860461       -23.4143
  32   1.0000      -0.858772       -23.3684
  33   1.0000      -0.811998       -22.0956
  34   1.0000      -0.795089       -21.6355
  35   1.0000      -0.791418       -21.5356
  36   1.0000      -0.780418       -21.2362
  37   1.0000      -0.770401       -20.9637
  38   1.0000      -0.761920       -20.7329
  39   1.0000      -0.750197       -20.4139
  40   1.0000      -0.748678       -20.3726
  41   1.0000      -0.734718       -19.9927
  42   1.0000      -0.722187       -19.6517
  43   1.0000      -0.707867       -19.2620
  44   1.0000      -0.693341       -18.8668
  45   1.0000      -0.652179       -17.7467
  46   1.0000      -0.644179       -17.5290
  47   1.0000      -0.621917       -16.9232
  48   1.0000      -0.609589       -16.5878
  49   1.0000      -0.609103       -16.5745
  50   1.0000      -0.608226       -16.5507
  51   1.0000      -0.607604       -16.5337
  52   1.0000      -0.589809       -16.0495
  53   1.0000      -0.578760       -15.7489
  54   1.0000      -0.558467       -15.1967
  55   1.0000      -0.540567       -14.7096
  56   1.0000      -0.534750       -14.5513
  57   1.0000      -0.503373       -13.6975
  58   1.0000      -0.502100       -13.6628
  59   1.0000      -0.482210       -13.1216
  60   1.0000      -0.478574       -13.0227
  61   1.0000      -0.473500       -12.8846
  62   1.0000      -0.469885       -12.7862
  63   1.0000      -0.459681       -12.5085
  64   1.0000      -0.455248       -12.3879
  65   1.0000      -0.453709       -12.3461
  66   1.0000      -0.437674       -11.9097
  67   1.0000      -0.436006       -11.8643
  68   1.0000      -0.429184       -11.6787
  69   1.0000      -0.425616       -11.5816
  70   1.0000      -0.425235       -11.5712
  71   1.0000      -0.424332       -11.5467
  72   1.0000      -0.423461       -11.5230
  73   1.0000      -0.419702       -11.4207
  74   1.0000      -0.410593       -11.1728
  75   1.0000      -0.394999       -10.7485
  76   1.0000      -0.391422       -10.6511
  77   1.0000      -0.381672       -10.3858
  78   1.0000      -0.378378       -10.2962
  79   1.0000      -0.374997       -10.2042
  80   1.0000      -0.371214       -10.1012
  81   1.0000      -0.362842        -9.8734
  82   1.0000      -0.362711        -9.8699
  83   1.0000      -0.361012        -9.8236
  84   1.0000      -0.354329        -9.6418
  85   1.0000      -0.352251        -9.5852
  86   1.0000      -0.351685        -9.5698
  87   1.0000      -0.350876        -9.5478
  88   1.0000      -0.335270        -9.1232
  89   1.0000      -0.331339        -9.0162
  90   1.0000      -0.331146        -9.0109
  91   1.0000      -0.329914        -8.9774
  92   1.0000      -0.326133        -8.8745
  93   1.0000      -0.322500        -8.7757
  94   1.0000      -0.320469        -8.7204
  95   1.0000      -0.302636        -8.2352
  96   1.0000      -0.273834        -7.4514
  97   1.0000      -0.267883        -7.2895
  98   1.0000      -0.266189        -7.2434
  99   1.0000      -0.258358        -7.0303
 100   1.0000      -0.257934        -7.0187
 101   1.0000      -0.256424        -6.9776
 102   1.0000      -0.234261        -6.3746
 103   1.0000      -0.201219        -5.4754
 104   0.0000      -0.085582        -2.3288
 105   0.0000      -0.057505        -1.5648
 106   0.0000      -0.028833        -0.7846
 107   0.0000      -0.015278        -0.4157
 108   0.0000      -0.013329        -0.3627

MULLIKEN ATOMIC CHARGES AND SPIN POPULATIONS
--------------------------------------------
   0 C :   -0.304309    0.095018
   1 C :   -0.414187   -0.064348
   2 C :   -0.415499    0.027916
   3 C :    0.496611    0.203391
   4 C :    0.376811   -0.138368
   5 C :   -0.448395    0.212084
   6 C :    0.555702   -0.091082
   7 C :    0.236839    0.218982
   8 C :   -0.388922   -0.109741
   9 H :    0.131424   -0.011369
  10 H :    0.133114    0.005088
  11 C :   -0.266784    0.694364
  12 H :    0.126696   -0.036414
  13 C :   -0.272937   -0.044763
  14 H :    0.152791    0.029406
  15 H :    0.152234    0.029034
  16 C :   -0.290350    0.002155
  17 H :    0.155345   -0.000147
  18 H :    0.154996   -0.000140
  19 C :   -0.510863   -0.000783
  20 H :    0.159608    0.000165
  21 H :    0.159587    0.000165
  22 C :   -0.357554   -0.016435
  23 H :    0.152461    0.010070
  24 H :    0.152529    0.010094
  25 C :   -0.273112    0.000894
  26 H :    0.142252    0.000173
  27 H :    0.142346    0.000174
  28 C :   -0.263515   -0.000235
  29 H :    0.144518    0.000042
  30 H :    0.144543    0.000042
  31 C :   -0.511751   -0.000083
  32 H :    0.160103    0.000022
  33 H :    0.160088    0.000022
  34 C :   -0.291315   -0.043389
  35 H :    0.146218   -0.000164
  36 H :    0.144048   -0.000005
  37 C :    0.583678    0.008799
  38 C :   -0.281910   -0.010421
  39 C :   -0.098430    0.005283
  40 C :   -0.122727   -0.011401
  41 C :   -0.103194    0.005278
  42 C :   -0.272177   -0.010463
  43 H :    0.107249    0.000624
  44 H :    0.106546   -0.000247
  45 H :    0.120321    0.000534
  46 H :    0.119862    0.000534
  47 H :    0.106527   -0.000245
  48 C :    0.591772   -0.019196
  49 C :   -0.281261    0.024783
  50 C :   -0.100595   -0.013134
  51 C :   -0.125081    0.028414
  52 C :   -0.100679   -0.013137
  53 C :   -0.277418    0.025102
  54 H :    0.106948   -0.001596
  55 H :    0.106218    0.000633
  56 H :    0.117107   -0.001281
  57 H :    0.119852   -0.001331
  58 H :    0.106019    0.000636
Sum of atomic charges         :    0.0000000

LOEWDIN ATOMIC CHARGES AND SPIN POPULATIONS
-------------------------------------------
   0 C :   -0.036940    0.071594
   1 C :   -0.030114   -0.029027
   2 C :   -0.027997    0.016315
   3 C :   -0.054434    0.159868
   4 C :   -0.066717   -0.072229
   5 C :    0.008161    0.168602
   6 C :   -0.067901   -0.058994
   7 C :   -0.040925    0.172458
   8 C :   -0.010193   -0.064961
   9 H :    0.059168    0.001229
  10 H :    0.060630   -0.000594
  11 C :   -0.008890    0.573383
  12 H :    0.056868    0.004587
  13 C :   -0.082765    0.003444
  14 H :    0.054158    0.024074
  15 H :    0.053974    0.023738
  16 C :   -0.088048    0.000950
  17 H :    0.042157   -0.000045
  18 H :    0.042082   -0.000045
  19 C :   -0.078183   -0.000162
  20 H :    0.034307    0.000199
  21 H :    0.034308    0.000201
  22 C :   -0.045063    0.001595
  23 H :    0.059182    0.008008
  24 H :    0.059189    0.008024
  25 C :   -0.079775    0.000187
  26 H :    0.044654    0.000008
  27 H :    0.044685    0.000007
  28 C :   -0.090623   -0.000006
  29 H :    0.040788    0.000057
  30 H :    0.040790    0.000057
  31 C :   -0.078949   -0.000033
  32 H :    0.034103    0.000014
  33 H :    0.034103    0.000014
  34 C :   -0.035382   -0.033763
  35 H :    0.032289   -0.000083
  36 H :    0.031546   -0.000006
  37 C :   -0.071823    0.004708
  38 C :   -0.015345   -0.008382
  39 C :   -0.042662    0.003239
  40 C :   -0.042885   -0.008936
  41 C :   -0.043033    0.003236
  42 C :   -0.015829   -0.008373
  43 H :    0.049130   -0.000070
  44 H :    0.050276    0.000029
  45 H :    0.056080   -0.000036
  46 H :    0.055793   -0.000036
  47 H :    0.050349    0.000028
  48 C :   -0.071514   -0.010497
  49 C :   -0.017002    0.020000
  50 C :   -0.043352   -0.008064
  51 C :   -0.043894    0.022165
  52 C :   -0.043059   -0.008041
  53 C :   -0.015825    0.020179
  54 H :    0.048928    0.000163
  55 H :    0.050241   -0.000062
  56 H :    0.055059    0.000075
  57 H :    0.055960    0.000076
  58 H :    0.050165   -0.000063

  Mayer bond orders larger than 0.100000
B(  0-C ,  1-C ) :   2.4306 B(  0-C , 48-C ) :   1.0239 B(  1-C ,  3-C ) :   0.7986
B(  2-C ,  6-C ) :   0.7639 B(  2-C , 34-C ) :   2.4867 B(  3-C ,  4-C ) :   1.2756
B(  3-C ,  7-C ) :   0.1054 B(  3-C ,  8-C ) :   1.4359 B(  4-C ,  5-C ) :   1.2262
B(  4-C ,  6-C ) :   0.1152 B(  4-C , 11-C ) :   1.2925 B(  5-C ,  6-C ) :   1.4914
B(  5-C ,  9-H ) :   0.9696 B(  6-C ,  7-C ) :   1.3343 B(  6-C ,  8-C ) :   0.1113
B(  7-C ,  8-C ) :   1.4141 B(  7-C , 22-C ) :   0.9625 B(  8-C , 10-H ) :   0.9710
B( 11-C , 12-H ) :   0.9828 B( 11-C , 13-C ) :   0.9981 B( 13-C , 14-H ) :   0.9562
B( 13-C , 15-H ) :   0.9559 B( 13-C , 16-C ) :   0.9818 B( 16-C , 17-H ) :   0.9725
B( 16-C , 18-H ) :   0.9722 B( 16-C , 19-C ) :   0.9616 B( 19-C , 20-H ) :   0.9728
B( 19-C , 21-H ) :   0.9729 B( 19-C , 35-H ) :   0.9675 B( 22-C , 23-H ) :   0.9554
B( 22-C , 24-H ) :   0.9556 B( 22-C , 25-C ) :   1.0235 B( 25-C , 26-H ) :   0.9615
B( 25-C , 27-H ) :   0.9616 B( 25-C , 28-C ) :   0.9858 B( 28-C , 29-H ) :   0.9718
B( 28-C , 30-H ) :   0.9719 B( 28-C , 31-C ) :   0.9543 B( 31-C , 32-H ) :   0.9732
B( 31-C , 33-H ) :   0.9732 B( 31-C , 36-H ) :   0.9673 B( 34-C , 37-C ) :   1.0108
B( 37-C , 38-C ) :   1.3911 B( 37-C , 42-C ) :   1.3852 B( 38-C , 39-C ) :   1.4767
B( 38-C , 45-H ) :   0.9819 B( 39-C , 40-C ) :   1.4525 B( 39-C , 47-H ) :   0.9758
B( 40-C , 41-C ) :   1.4554 B( 40-C , 43-H ) :   0.9656 B( 41-C , 42-C ) :   1.4764
B( 41-C , 44-H ) :   0.9767 B( 42-C , 46-H ) :   0.9797 B( 48-C , 49-C ) :   1.3833
B( 48-C , 53-C ) :   1.3811 B( 49-C , 50-C ) :   1.4782 B( 49-C , 51-C ) :   0.1007
B( 49-C , 56-H ) :   0.9810 B( 50-C , 51-C ) :   1.4532 B( 50-C , 58-H ) :   0.9766
B( 51-C , 52-C ) :   1.4514 B( 51-C , 54-H ) :   0.9655 B( 52-C , 53-C ) :   1.4781
B( 52-C , 55-H ) :   0.9760 B( 53-C , 57-H ) :   0.9820

FINAL SINGLE POINT ENERGY     -1159.917052414271

DIPOLE MOMENT
-------------
                                X             Y             Z
Electronic contribution:     -0.41975       2.19651       0.04734
Nuclear contribution   :      0.55407      -2.16967      -0.04797
                        -----------------------------------------
Total Dipole Moment    :      0.13432       0.02684      -0.00063
                        -----------------------------------------
Magnitude (a.u.)       :      0.13698
Magnitude (Debye)      :      0.34817

Rotational constants in cm-1:     0.005953     0.001983     0.001491
Rotational constants in MHz :   178.474253    59.455247    44.684328

CHEMICAL SHIELDING SUMMARY (ppm)  --  Orbital contribution
----------------------------------------------------------

  Nucleus  Element    Isotropic     Anisotropy
  -------  -------  ------------   ------------
      9       H           24.429         12.264
     10       H           24.536         13.249
     12       H           25.302         11.996
     14       H           29.318          4.551
     15       H           29.313          4.586
     17       H           30.040          6.751
     18       H           30.038          6.795
     20       H           30.940          8.074
     21       H           30.939          8.066
     23       H           28.954          6.081
     24       H           28.955          6.065
     26       H           30.154          4.984
     27       H           30.156          4.976
     29       H           30.281          6.409
     30       H           30.281          6.407
     32       H           30.910          8.060
     33       H           30.910          8.061
     35       H           30.670         10.332
     36       H           30.684         10.532
     43       H           24.296          4.689
     44       H           24.304          5.659
     45       H           24.056          8.091
     46       H           24.039          8.176
     47       H           24.292          5.322
     54       H           24.330          4.687
     55       H           24.307          5.387
     56       H           24.076          7.965
     57       H           24.074          8.004
     58       H           24.313          5.554

                             ****ORCA TERMINATED NORMALLY****
TOTAL RUN TIME: 0 days 3 hours 11 minutes 15 seconds 862 msec
