                         Program Version 5.0.4 -  RELEASE  -
|  1> ! B3LYP EPR-II AUTOAUX
|  2> %pal nprocs 16 end
|  3> *XYZFile 0 2 opt.xyz
|  4> %EPRNMR
|  5>         GTENSOR   TRUE
|  6>         NUCLEI    = ALL H {SHIFT, AISO, ADIP, AORB}
|  7>         ORI       CenterOfElCharge
|  8> END
|  9>
| 10>                          ****END OF INPUT****

CARTESIAN COORDINATES (ANGSTROEM)
---------------------------------
  C     -4.058780   -0.114027   -0.000729
  C     -2.837067   -0.037217    0.000458
  C      2.839456    0.025128    0.001303
  C     -1.417730    0.016651    0.000204
  C     -0.712128    1.278604   -0.003269
  C      0.709687    1.211983   -0.002475
  C      1.411298    0.003549    0.000975
  C      0.702255   -1.241266    0.003983
  C     -0.691408   -1.190779    0.003621
  H      1.285445    2.137757   -0.004762
  H     -1.264663   -2.117693    0.006030
  C     -1.396749    2.512534   -0.007530
  H     -2.489374    2.477379   -0.008222
  C     -0.740034    3.860790   -0.011243
  H     -0.071952    3.959921    0.869257
  H     -0.065383    3.951892   -0.887544
  C     -1.737595    5.026485   -0.020436
  H     -2.392913    4.932401   -0.905600
  H     -2.399942    4.940503    0.860321
  C     -1.059047    6.397666   -0.024026
  H     -0.415065    6.523869   -0.911556
  H     -0.422198    6.532067    0.867440
  C      1.476339   -2.542840    0.007434
  H      2.155053   -2.543120   -0.866126
  H      2.153685   -2.539371    0.882056
  C      0.658132   -3.836796    0.009521
  H     -0.005723   -3.860159    0.893279
  H     -0.004355   -3.863766   -0.875166
  C      1.539543   -5.091841    0.012796
  H      2.206455   -5.070185   -0.869111
  H      2.204866   -5.066716    0.895810
  C      0.733887   -6.393511    0.014637
  H      0.084970   -6.463882   -0.875410
  H      0.082960   -6.460115    0.903504
  C      4.061356    0.051700    0.002498
  H     -1.799216    7.213950   -0.030767
  H      1.392930   -7.276874    0.017252
  C      5.489033    0.088671    0.002622
  C      6.175837    1.322543    0.001416
  C      7.570008    1.354492    0.001416
  C      8.304589    0.163225    0.002633
  C      7.634082   -1.065321    0.003864
  C      6.240226   -1.107100    0.003878
  H      9.396716    0.192185    0.002617
  H      8.202215   -1.998703    0.004810
  H      5.600673    2.250353    0.000473
  H      5.715229   -2.064211    0.004815
  H      8.088008    2.316597    0.000461
  C     -5.481361   -0.217167   -0.000792
  C     -6.291506    0.940362   -0.001962
  C     -7.681432    0.829777   -0.001873
  C     -8.291180   -0.430157   -0.000632
  C     -7.498648   -1.583951    0.000528
  C     -6.108081   -1.483701    0.000446
  H     -9.380565   -0.512687   -0.000545
  H     -7.968746   -2.570377    0.001498
  H     -5.815246    1.922629   -0.002861
  H     -5.488129   -2.382218    0.001345
  H     -8.294683    1.734189   -0.002759

 Total Charge           Charge          ....    0
 Multiplicity           Mult            ....    2
 Number of Electrons    NEL             ....  209
 Basis Dimension        Dim             ....  713

ORBITAL ENERGIES
----------------
                 SPIN UP ORBITALS
  NO   OCC          E(Eh)            E(eV)
   0   1.0000     -10.226534      -278.2781
   1   1.0000     -10.225703      -278.2555
   2   1.0000     -10.221506      -278.1413
   3   1.0000     -10.220074      -278.1023
   4   1.0000     -10.209583      -277.8169
   5   1.0000     -10.206190      -277.7245
   6   1.0000     -10.204749      -277.6853
   7   1.0000     -10.204560      -277.6802
   8   1.0000     -10.204403      -277.6759
   9   1.0000     -10.203822      -277.6601
  10   1.0000     -10.203811      -277.6598
  11   1.0000     -10.203637      -277.6551
  12   1.0000     -10.203557      -277.6529
  13   1.0000     -10.203361      -277.6476
  14   1.0000     -10.202463      -277.6231
  15   1.0000     -10.202284      -277.6183
  16   1.0000     -10.201127      -277.5868
  17   1.0000     -10.200581      -277.5719
  18   1.0000     -10.199545      -277.5437
  19   1.0000     -10.198861      -277.5251
  20   1.0000     -10.197516      -277.4885
  21   1.0000     -10.196571      -277.4628
  22   1.0000     -10.194687      -277.4115
  23   1.0000     -10.189121      -277.2601
  24   1.0000     -10.187121      -277.2057
  25   1.0000     -10.184839      -277.1436
  26   1.0000     -10.182300      -277.0745
  27   1.0000     -10.181855      -277.0623
  28   1.0000     -10.174937      -276.8741
  29   1.0000     -10.173057      -276.8230
  30   1.0000      -0.871649       -23.7188
  31   1.0000      -0.862704       -23.4754
  32   1.0000      -0.861681       -23.4475
  33   1.0000      -0.818014       -22.2593
  34   1.0000      -0.798181       -21.7196
  35   1.0000      -0.794370       -21.6159
  36   1.0000      -0.782177       -21.2841
  37   1.0000      -0.772504       -21.0209
  38   1.0000      -0.764754       -20.8100
  39   1.0000      -0.750781       -20.4298
  40   1.0000      -0.749818       -20.4036
  41   1.0000      -0.737384       -20.0652
  42   1.0000      -0.725611       -19.7449
  43   1.0000      -0.709702       -19.3120
  44   1.0000      -0.695530       -18.9263
  45   1.0000      -0.654938       -17.8218
  46   1.0000      -0.646128       -17.5820
  47   1.0000      -0.623305       -16.9610
  48   1.0000      -0.612627       -16.6704
  49   1.0000      -0.609249       -16.5785
  50   1.0000      -0.608870       -16.5682
  51   1.0000      -0.607983       -16.5441
  52   1.0000      -0.589777       -16.0486
  53   1.0000      -0.578821       -15.7505
  54   1.0000      -0.560249       -15.2452
  55   1.0000      -0.541344       -14.7307
  56   1.0000      -0.535710       -14.5774
  57   1.0000      -0.506502       -13.7826
  58   1.0000      -0.503926       -13.7125
  59   1.0000      -0.480795       -13.0831
  60   1.0000      -0.478873       -13.0308
  61   1.0000      -0.474776       -12.9193
  62   1.0000      -0.469893       -12.7864
  63   1.0000      -0.461911       -12.5692
  64   1.0000      -0.456658       -12.4263
  65   1.0000      -0.455489       -12.3945
  66   1.0000      -0.437356       -11.9011
  67   1.0000      -0.435885       -11.8610
  68   1.0000      -0.430185       -11.7059
  69   1.0000      -0.427949       -11.6451
  70   1.0000      -0.425108       -11.5678
  71   1.0000      -0.424821       -11.5600
  72   1.0000      -0.423842       -11.5333
  73   1.0000      -0.421170       -11.4606
  74   1.0000      -0.410669       -11.1749
  75   1.0000      -0.397823       -10.8253
  76   1.0000      -0.396778       -10.7969
  77   1.0000      -0.383694       -10.4408
  78   1.0000      -0.380876       -10.3642
  79   1.0000      -0.377265       -10.2659
  80   1.0000      -0.374245       -10.1837
  81   1.0000      -0.363957        -9.9038
  82   1.0000      -0.362285        -9.8583
  83   1.0000      -0.360735        -9.8161
  84   1.0000      -0.355271        -9.6674
  85   1.0000      -0.353086        -9.6080
  86   1.0000      -0.351330        -9.5602
  87   1.0000      -0.350224        -9.5301
  88   1.0000      -0.338833        -9.2201
  89   1.0000      -0.331979        -9.0336
  90   1.0000      -0.331771        -9.0279
  91   1.0000      -0.330550        -8.9947
  92   1.0000      -0.326593        -8.8871
  93   1.0000      -0.322267        -8.7693
  94   1.0000      -0.321036        -8.7358
  95   1.0000      -0.305852        -8.3227
  96   1.0000      -0.278290        -7.5727
  97   1.0000      -0.271805        -7.3962
  98   1.0000      -0.268448        -7.3048
  99   1.0000      -0.267025        -7.2661
 100   1.0000      -0.258603        -7.0370
 101   1.0000      -0.258129        -7.0241
 102   1.0000      -0.236509        -6.4357
 103   1.0000      -0.208707        -5.6792
 104   1.0000      -0.169674        -4.6171
 105   0.0000      -0.065378        -1.7790
 106   0.0000      -0.029612        -0.8058
 107   0.0000      -0.013828        -0.3763
 108   0.0000      -0.013111        -0.3568
 109   0.0000       0.002219         0.0604

                 SPIN DOWN ORBITALS
  NO   OCC          E(Eh)            E(eV)
   0   1.0000     -10.226406      -278.2747
   1   1.0000     -10.226037      -278.2646
   2   1.0000     -10.221617      -278.1444
   3   1.0000     -10.218168      -278.0505
   4   1.0000     -10.208601      -277.7901
   5   1.0000     -10.206225      -277.7255
   6   1.0000     -10.204841      -277.6878
   7   1.0000     -10.204674      -277.6833
   8   1.0000     -10.204530      -277.6794
   9   1.0000     -10.203784      -277.6591
  10   1.0000     -10.203623      -277.6547
  11   1.0000     -10.203505      -277.6515
  12   1.0000     -10.203278      -277.6453
  13   1.0000     -10.203036      -277.6387
  14   1.0000     -10.202577      -277.6262
  15   1.0000     -10.202317      -277.6191
  16   1.0000     -10.201155      -277.5875
  17   1.0000     -10.199883      -277.5529
  18   1.0000     -10.199008      -277.5291
  19   1.0000     -10.197784      -277.4958
  20   1.0000     -10.196513      -277.4612
  21   1.0000     -10.196224      -277.4534
  22   1.0000     -10.189778      -277.2779
  23   1.0000     -10.187317      -277.2110
  24   1.0000     -10.186816      -277.1974
  25   1.0000     -10.184802      -277.1426
  26   1.0000     -10.182301      -277.0745
  27   1.0000     -10.181852      -277.0623
  28   1.0000     -10.174946      -276.8743
  29   1.0000     -10.173059      -276.8230
  30   1.0000      -0.868455       -23.6319
  31   1.0000      -0.862747       -23.4765
  32   1.0000      -0.861203       -23.4345
  33   1.0000      -0.813314       -22.1314
  34   1.0000      -0.796235       -21.6667
  35   1.0000      -0.792562       -21.5667
  36   1.0000      -0.781791       -21.2736
  37   1.0000      -0.771687       -20.9987
  38   1.0000      -0.762750       -20.7555
  39   1.0000      -0.750919       -20.4335
  40   1.0000      -0.749467       -20.3940
  41   1.0000      -0.735639       -20.0178
  42   1.0000      -0.722755       -19.6672
  43   1.0000      -0.708525       -19.2799
  44   1.0000      -0.693387       -18.8680
  45   1.0000      -0.651974       -17.7411
  46   1.0000      -0.644760       -17.5448
  47   1.0000      -0.622152       -16.9296
  48   1.0000      -0.609310       -16.5802
  49   1.0000      -0.608776       -16.5656
  50   1.0000      -0.607994       -16.5444
  51   1.0000      -0.607282       -16.5250
  52   1.0000      -0.588904       -16.0249
  53   1.0000      -0.577194       -15.7063
  54   1.0000      -0.557425       -15.1683
  55   1.0000      -0.540949       -14.7200
  56   1.0000      -0.535172       -14.5628
  57   1.0000      -0.503521       -13.7015
  58   1.0000      -0.502149       -13.6642
  59   1.0000      -0.480633       -13.0787
  60   1.0000      -0.477790       -13.0013
  61   1.0000      -0.473757       -12.8916
  62   1.0000      -0.469061       -12.7638
  63   1.0000      -0.458565       -12.4782
  64   1.0000      -0.456713       -12.4278
  65   1.0000      -0.455286       -12.3890
  66   1.0000      -0.437102       -11.8941
  67   1.0000      -0.435518       -11.8510
  68   1.0000      -0.428681       -11.6650
  69   1.0000      -0.426364       -11.6019
  70   1.0000      -0.425039       -11.5659
  71   1.0000      -0.423926       -11.5356
  72   1.0000      -0.423590       -11.5265
  73   1.0000      -0.418650       -11.3920
  74   1.0000      -0.410186       -11.1617
  75   1.0000      -0.395671       -10.7668
  76   1.0000      -0.390500       -10.6260
  77   1.0000      -0.382309       -10.4031
  78   1.0000      -0.379818       -10.3354
  79   1.0000      -0.374932       -10.2024
  80   1.0000      -0.371624       -10.1124
  81   1.0000      -0.362827        -9.8730
  82   1.0000      -0.362187        -9.8556
  83   1.0000      -0.360498        -9.8097
  84   1.0000      -0.354465        -9.6455
  85   1.0000      -0.351353        -9.5608
  86   1.0000      -0.350130        -9.5275
  87   1.0000      -0.350053        -9.5254
  88   1.0000      -0.336562        -9.1583
  89   1.0000      -0.331238        -9.0134
  90   1.0000      -0.330606        -8.9962
  91   1.0000      -0.328372        -8.9355
  92   1.0000      -0.326216        -8.8768
  93   1.0000      -0.321507        -8.7487
  94   1.0000      -0.320684        -8.7262
  95   1.0000      -0.303570        -8.2606
  96   1.0000      -0.274525        -7.4702
  97   1.0000      -0.268307        -7.3010
  98   1.0000      -0.266585        -7.2542
  99   1.0000      -0.258992        -7.0475
 100   1.0000      -0.258057        -7.0221
 101   1.0000      -0.257130        -6.9969
 102   1.0000      -0.234724        -6.3872
 103   1.0000      -0.201410        -5.4806
 104   0.0000      -0.085627        -2.3300
 105   0.0000      -0.057100        -1.5538
 106   0.0000      -0.028044        -0.7631
 107   0.0000      -0.014158        -0.3853
 108   0.0000      -0.012291        -0.3345

MULLIKEN ATOMIC CHARGES AND SPIN POPULATIONS
--------------------------------------------
   0 C :   -0.307075    0.093369
   1 C :   -0.415535   -0.062649
   2 C :   -0.421571    0.024799
   3 C :    0.503988    0.202056
   4 C :    0.380831   -0.135502
   5 C :   -0.453193    0.208221
   6 C :    0.559553   -0.087946
   7 C :    0.243714    0.217017
   8 C :   -0.394078   -0.107182
   9 H :    0.129574   -0.011196
  10 H :    0.131269    0.004963
  11 C :   -0.263099    0.689117
  12 H :    0.125240   -0.036416
  13 C :   -0.269030   -0.045325
  14 H :    0.150035    0.030743
  15 H :    0.149781    0.030574
  16 C :   -0.282874    0.002215
  17 H :    0.152504   -0.000167
  18 H :    0.152343   -0.000163
  19 C :   -0.507932   -0.000762
  20 H :    0.157444    0.000175
  21 H :    0.157442    0.000175
  22 C :   -0.354448   -0.016579
  23 H :    0.149906    0.010520
  24 H :    0.149944    0.010538
  25 C :   -0.267956    0.000902
  26 H :    0.139420    0.000179
  27 H :    0.139491    0.000179
  28 C :   -0.254608   -0.000229
  29 H :    0.141553    0.000043
  30 H :    0.141576    0.000043
  31 C :   -0.508995   -0.000084
  32 H :    0.157941    0.000025
  33 H :    0.157927    0.000025
  34 C :   -0.289299   -0.040173
  35 H :    0.144579   -0.000167
  36 H :    0.142440   -0.000005
  37 C :    0.591930    0.007432
  38 C :   -0.282258   -0.009032
  39 C :   -0.097776    0.004214
  40 C :   -0.121184   -0.009926
  41 C :   -0.102095    0.004207
  42 C :   -0.273415   -0.009066
  43 H :    0.105535    0.000529
  44 H :    0.104997   -0.000182
  45 H :    0.118569    0.000449
  46 H :    0.118173    0.000448
  47 H :    0.104981   -0.000182
  48 C :    0.598428   -0.018265
  49 C :   -0.283268    0.023924
  50 C :   -0.098611   -0.012375
  51 C :   -0.123353    0.027524
  52 C :   -0.099631   -0.012378
  53 C :   -0.278020    0.024236
  54 H :    0.105202   -0.001553
  55 H :    0.104713    0.000591
  56 H :    0.115564   -0.001238
  57 H :    0.118256   -0.001287
  58 H :    0.104461    0.000595
Sum of atomic charges         :   -0.0000000

LOEWDIN ATOMIC CHARGES AND SPIN POPULATIONS
-------------------------------------------
   0 C :   -0.038164    0.070312
   1 C :   -0.028049   -0.027608
   2 C :   -0.029741    0.014240
   3 C :   -0.054352    0.158805
   4 C :   -0.067832   -0.070042
   5 C :    0.007113    0.165679
   6 C :   -0.069379   -0.056892
   7 C :   -0.043123    0.171132
   8 C :   -0.011489   -0.062902
   9 H :    0.061478    0.001093
  10 H :    0.063025   -0.000521
  11 C :   -0.011384    0.569078
  12 H :    0.059775    0.003979
  13 C :   -0.087708    0.003504
  14 H :    0.056675    0.025052
  15 H :    0.056594    0.024900
  16 C :   -0.094130    0.000981
  17 H :    0.044826   -0.000062
  18 H :    0.044788   -0.000062
  19 C :   -0.084351   -0.000125
  20 H :    0.036678    0.000213
  21 H :    0.036677    0.000214
  22 C :   -0.049337    0.001614
  23 H :    0.061711    0.008336
  24 H :    0.061718    0.008347
  25 C :   -0.084608    0.000187
  26 H :    0.047093    0.000008
  27 H :    0.047116    0.000008
  28 C :   -0.096468    0.000008
  29 H :    0.043365    0.000061
  30 H :    0.043367    0.000061
  31 C :   -0.085068   -0.000032
  32 H :    0.036459    0.000016
  33 H :    0.036459    0.000016
  34 C :   -0.032819   -0.031470
  35 H :    0.034537   -0.000082
  36 H :    0.033793   -0.000006
  37 C :   -0.072732    0.003836
  38 C :   -0.016793   -0.007358
  39 C :   -0.045498    0.002523
  40 C :   -0.045615   -0.007850
  41 C :   -0.045848    0.002519
  42 C :   -0.017166   -0.007345
  43 H :    0.051606   -0.000063
  44 H :    0.052723    0.000026
  45 H :    0.058364   -0.000031
  46 H :    0.058118   -0.000032
  47 H :    0.052788    0.000026
  48 C :   -0.073748   -0.009840
  49 C :   -0.018675    0.019366
  50 C :   -0.045765   -0.007512
  51 C :   -0.046324    0.021498
  52 C :   -0.045548   -0.007490
  53 C :   -0.017646    0.019540
  54 H :    0.051419    0.000140
  55 H :    0.052711   -0.000053
  56 H :    0.057429    0.000056
  57 H :    0.058312    0.000057
  58 H :    0.052641   -0.000054

  Mayer bond orders larger than 0.100000
B(  0-C ,  1-C ) :   2.4281 B(  0-C , 48-C ) :   1.0266 B(  1-C ,  3-C ) :   0.7946
B(  2-C ,  6-C ) :   0.7601 B(  2-C , 34-C ) :   2.4847 B(  3-C ,  4-C ) :   1.2788
B(  3-C ,  7-C ) :   0.1102 B(  3-C ,  8-C ) :   1.4368 B(  4-C ,  5-C ) :   1.2226
B(  4-C ,  6-C ) :   0.1204 B(  4-C , 11-C ) :   1.2963 B(  5-C ,  6-C ) :   1.4945
B(  5-C ,  9-H ) :   0.9709 B(  6-C ,  7-C ) :   1.3375 B(  6-C ,  8-C ) :   0.1135
B(  7-C ,  8-C ) :   1.4138 B(  7-C , 22-C ) :   0.9634 B(  8-C , 10-H ) :   0.9724
B( 11-C , 12-H ) :   0.9832 B( 11-C , 13-C ) :   1.0005 B( 13-C , 14-H ) :   0.9550
B( 13-C , 15-H ) :   0.9549 B( 13-C , 16-C ) :   0.9823 B( 16-C , 17-H ) :   0.9721
B( 16-C , 18-H ) :   0.9720 B( 16-C , 19-C ) :   0.9614 B( 19-C , 20-H ) :   0.9728
B( 19-C , 21-H ) :   0.9728 B( 19-C , 35-H ) :   0.9673 B( 22-C , 23-H ) :   0.9550
B( 22-C , 24-H ) :   0.9552 B( 22-C , 25-C ) :   1.0248 B( 25-C , 26-H ) :   0.9607
B( 25-C , 27-H ) :   0.9608 B( 25-C , 28-C ) :   0.9877 B( 28-C , 29-H ) :   0.9712
B( 28-C , 30-H ) :   0.9712 B( 28-C , 31-C ) :   0.9540 B( 31-C , 32-H ) :   0.9731
B( 31-C , 33-H ) :   0.9731 B( 31-C , 36-H ) :   0.9672 B( 34-C , 37-C ) :   1.0131
B( 37-C , 38-C ) :   1.3912 B( 37-C , 39-C ) :   0.1010 B( 37-C , 42-C ) :   1.3862
B( 38-C , 39-C ) :   1.4763 B( 38-C , 40-C ) :   0.1003 B( 38-C , 45-H ) :   0.9827
B( 39-C , 40-C ) :   1.4524 B( 39-C , 47-H ) :   0.9764 B( 40-C , 41-C ) :   1.4552
B( 40-C , 42-C ) :   0.1014 B( 40-C , 43-H ) :   0.9660 B( 41-C , 42-C ) :   1.4762
B( 41-C , 44-H ) :   0.9772 B( 42-C , 46-H ) :   0.9806 B( 48-C , 49-C ) :   1.3845
B( 48-C , 52-C ) :   0.1006 B( 48-C , 53-C ) :   1.3810 B( 49-C , 50-C ) :   1.4779
B( 49-C , 51-C ) :   0.1033 B( 49-C , 56-H ) :   0.9818 B( 50-C , 51-C ) :   1.4529
B( 50-C , 58-H ) :   0.9771 B( 51-C , 52-C ) :   1.4513 B( 51-C , 53-C ) :   0.1003
B( 51-C , 54-H ) :   0.9659 B( 52-C , 53-C ) :   1.4778 B( 52-C , 55-H ) :   0.9766
B( 53-C , 57-H ) :   0.9829

FINAL SINGLE POINT ENERGY     -1159.915708174177

DIPOLE MOMENT
-------------
                                X             Y             Z
Electronic contribution:     -0.49179       2.19313       0.02442
Nuclear contribution   :      0.63594      -2.16475      -0.02495
                        -----------------------------------------
Total Dipole Moment    :      0.14415       0.02838      -0.00053
                        -----------------------------------------
Magnitude (a.u.)       :      0.14691
Magnitude (Debye)      :      0.37343

Rotational constants in cm-1:     0.005965     0.001994     0.001497
Rotational constants in MHz :   178.831081    59.768381    44.884172

CHEMICAL SHIELDING SUMMARY (ppm)  --  Orbital contribution
----------------------------------------------------------

  Nucleus  Element    Isotropic     Anisotropy
  -------  -------  ------------   ------------
      9       H           81.577         76.924
     10       H           87.318         66.521
     12       H           71.073         27.261
     14       H           82.676         26.940
     15       H           82.988         26.666
     17       H           41.159         33.175
     18       H           40.844         33.096
     20       H           29.034         22.001
     21       H           28.750         22.187
     23       H           82.139         53.699
     24       H           82.087         53.715
     26       H           91.837         26.442
     27       H           91.892         26.467
     29       H           38.932         34.123
     30       H           38.879         34.154
     32       H           35.014         21.565
     33       H           34.996         21.542
     35       H          -56.407         18.435
     36       H          -54.666         17.330
     43       H         -173.486       -229.070
     44       H          -81.461         -1.436
     45       H          100.762         22.195
     46       H           99.310         25.098
     47       H          -80.475         -0.756
     54       H         -172.430       -222.107
     55       H          -73.977          0.717
     56       H           92.425         23.365
     57       H          107.247         22.991
     58       H          -86.796         -3.629

                             ****ORCA TERMINATED NORMALLY****
TOTAL RUN TIME: 0 days 3 hours 8 minutes 24 seconds 919 msec
