                         Program Version 5.0.4 -  RELEASE  -
|  1> ! B3LYP EPR-II AUTOAUX
|  2> %pal nprocs 16 end
|  3> *XYZFile 0 2 opt_EPRII.xyz
|  4> %EPRNMR
|  5>         GTENSOR   TRUE
|  6>         NUCLEI    = ALL H {SHIFT, AISO, ADIP, AORB}
|  7>         ORI       CenterOfElCharge
|  8> END
|  9>
| 10>                          ****END OF INPUT****

CARTESIAN COORDINATES (ANGSTROEM)
---------------------------------
  C     -4.063411   -0.116031    0.000381
  C     -2.838031   -0.045851    0.001359
  C      2.847796    0.031502    0.002314
  C     -1.415755    0.009274    0.001097
  C     -0.713197    1.275735   -0.002065
  C      0.712165    1.217650   -0.001116
  C      1.416713    0.007055    0.001976
  C      0.711436   -1.243044    0.004484
  C     -0.686037   -1.199693    0.004134
  H      1.279389    2.141817   -0.003061
  H     -1.251249   -2.124614    0.006214
  C     -1.407695    2.509167   -0.006355
  H     -2.493810    2.470704   -0.007173
  C     -0.753515    3.865509   -0.009553
  H     -0.099756    3.970330    0.871050
  H     -0.085896    3.959684   -0.880810
  C     -1.764099    5.027728   -0.024790
  H     -2.407067    4.932102   -0.909065
  H     -2.421827    4.942656    0.849684
  C     -1.086359    6.408106   -0.027337
  H     -0.444946    6.530732   -0.907455
  H     -0.459509    6.541123    0.861725
  C      1.493589   -2.545562    0.007443
  H      2.163440   -2.545935   -0.863660
  H      2.161560   -2.543208    0.879998
  C      0.669127   -3.842482    0.008517
  H      0.012619   -3.867388    0.888486
  H      0.014369   -3.869833   -0.872689
  C      1.555057   -5.101488    0.011166
  H      2.214102   -5.082052   -0.867050
  H      2.212055   -5.079807    0.890861
  C      0.741313   -6.407351    0.011889
  H      0.098485   -6.470913   -0.873353
  H      0.095991   -6.468371    0.895491
  C      4.073016    0.052379    0.003430
  H     -1.826669    7.214571   -0.038164
  H      1.395680   -7.285258    0.014067
  C      5.504808    0.085475    0.003548
  C      6.195098    1.322267    0.002863
  C      7.594370    1.350944    0.002826
  C      8.329483    0.153179    0.003482
  C      7.652617   -1.078498    0.004192
  C      6.253539   -1.116733    0.004239
  H      9.415843    0.179317    0.003437
  H      8.215781   -2.008107    0.004693
  H      5.624765    2.246411    0.002350
  H      5.728701   -2.067423    0.004764
  H      8.112575    2.306356    0.002279
  C     -5.490595   -0.212094    0.000500
  C     -6.294857    0.954567   -0.000327
  C     -7.690441    0.851753   -0.000037
  C     -8.310216   -0.409774    0.001060
  C     -7.520554   -1.572552    0.001857
  C     -6.124408   -1.479767    0.001574
  H     -9.394221   -0.485887    0.001299
  H     -7.994313   -2.550796    0.002709
  H     -5.815023    1.928756   -0.001133
  H     -5.512229   -2.376732    0.002199
  H     -8.295757    1.754502   -0.000643

 Total Charge           Charge          ....    0
 Multiplicity           Mult            ....    2
 Number of Electrons    NEL             ....  209
 Basis Dimension        Dim             ....  713

ORBITAL ENERGIES
----------------
                 SPIN UP ORBITALS
  NO   OCC          E(Eh)            E(eV)
   0   1.0000     -10.228138      -278.3218
   1   1.0000     -10.226739      -278.2837
   2   1.0000     -10.222698      -278.1738
   3   1.0000     -10.220826      -278.1228
   4   1.0000     -10.210203      -277.8337
   5   1.0000     -10.207345      -277.7560
   6   1.0000     -10.205258      -277.6992
   7   1.0000     -10.205119      -277.6954
   8   1.0000     -10.204932      -277.6903
   9   1.0000     -10.204304      -277.6732
  10   1.0000     -10.204224      -277.6711
  11   1.0000     -10.204102      -277.6677
  12   1.0000     -10.203932      -277.6631
  13   1.0000     -10.203795      -277.6594
  14   1.0000     -10.202978      -277.6372
  15   1.0000     -10.202770      -277.6315
  16   1.0000     -10.201888      -277.6075
  17   1.0000     -10.201231      -277.5896
  18   1.0000     -10.199903      -277.5535
  19   1.0000     -10.199808      -277.5509
  20   1.0000     -10.198652      -277.5194
  21   1.0000     -10.196830      -277.4698
  22   1.0000     -10.194976      -277.4194
  23   1.0000     -10.188026      -277.2303
  24   1.0000     -10.186085      -277.1775
  25   1.0000     -10.183538      -277.1082
  26   1.0000     -10.180955      -277.0379
  27   1.0000     -10.180582      -277.0277
  28   1.0000     -10.172754      -276.8147
  29   1.0000     -10.170853      -276.7630
  30   1.0000      -0.870079       -23.6760
  31   1.0000      -0.860390       -23.4124
  32   1.0000      -0.859241       -23.3811
  33   1.0000      -0.816682       -22.2230
  34   1.0000      -0.797040       -21.6886
  35   1.0000      -0.793236       -21.5851
  36   1.0000      -0.780788       -21.2463
  37   1.0000      -0.771219       -20.9859
  38   1.0000      -0.763923       -20.7874
  39   1.0000      -0.750049       -20.4099
  40   1.0000      -0.749024       -20.3820
  41   1.0000      -0.736517       -20.0416
  42   1.0000      -0.724976       -19.7276
  43   1.0000      -0.709079       -19.2950
  44   1.0000      -0.695416       -18.9232
  45   1.0000      -0.655209       -17.8292
  46   1.0000      -0.645509       -17.5652
  47   1.0000      -0.623321       -16.9614
  48   1.0000      -0.613203       -16.6861
  49   1.0000      -0.609495       -16.5852
  50   1.0000      -0.608839       -16.5673
  51   1.0000      -0.608164       -16.5490
  52   1.0000      -0.590673       -16.0730
  53   1.0000      -0.580397       -15.7934
  54   1.0000      -0.561439       -15.2775
  55   1.0000      -0.540960       -14.7203
  56   1.0000      -0.535290       -14.5660
  57   1.0000      -0.506285       -13.7767
  58   1.0000      -0.503889       -13.7115
  59   1.0000      -0.482371       -13.1260
  60   1.0000      -0.479433       -13.0460
  61   1.0000      -0.474794       -12.9198
  62   1.0000      -0.470690       -12.8081
  63   1.0000      -0.462965       -12.5979
  64   1.0000      -0.455179       -12.3860
  65   1.0000      -0.453911       -12.3515
  66   1.0000      -0.437882       -11.9154
  67   1.0000      -0.436385       -11.8746
  68   1.0000      -0.430137       -11.7046
  69   1.0000      -0.427464       -11.6319
  70   1.0000      -0.425587       -11.5808
  71   1.0000      -0.424707       -11.5569
  72   1.0000      -0.424325       -11.5465
  73   1.0000      -0.422073       -11.4852
  74   1.0000      -0.411024       -11.1845
  75   1.0000      -0.398661       -10.8481
  76   1.0000      -0.396148       -10.7797
  77   1.0000      -0.383438       -10.4339
  78   1.0000      -0.379276       -10.3206
  79   1.0000      -0.377360       -10.2685
  80   1.0000      -0.373507       -10.1636
  81   1.0000      -0.363951        -9.9036
  82   1.0000      -0.362766        -9.8714
  83   1.0000      -0.361259        -9.8304
  84   1.0000      -0.355107        -9.6629
  85   1.0000      -0.354604        -9.6493
  86   1.0000      -0.352224        -9.5845
  87   1.0000      -0.351046        -9.5524
  88   1.0000      -0.337592        -9.1864
  89   1.0000      -0.332989        -9.0611
  90   1.0000      -0.331715        -9.0264
  91   1.0000      -0.331681        -9.0255
  92   1.0000      -0.326535        -8.8855
  93   1.0000      -0.322961        -8.7882
  94   1.0000      -0.321172        -8.7395
  95   1.0000      -0.304933        -8.2977
  96   1.0000      -0.277721        -7.5572
  97   1.0000      -0.271709        -7.3936
  98   1.0000      -0.268036        -7.2936
  99   1.0000      -0.266633        -7.2554
 100   1.0000      -0.257940        -7.0189
 101   1.0000      -0.257421        -7.0048
 102   1.0000      -0.236022        -6.4225
 103   1.0000      -0.208544        -5.6748
 104   1.0000      -0.170061        -4.6276
 105   0.0000      -0.065797        -1.7904
 106   0.0000      -0.030398        -0.8272
 107   0.0000      -0.014923        -0.4061
 108   0.0000      -0.014153        -0.3851
 109   0.0000       0.001173         0.0319

                 SPIN DOWN ORBITALS
  NO   OCC          E(Eh)            E(eV)
   0   1.0000     -10.227982      -278.3175
   1   1.0000     -10.227089      -278.2933
   2   1.0000     -10.222426      -278.1663
   3   1.0000     -10.219338      -278.0823
   4   1.0000     -10.209796      -277.8227
   5   1.0000     -10.206821      -277.7417
   6   1.0000     -10.205389      -277.7028
   7   1.0000     -10.205246      -277.6989
   8   1.0000     -10.205080      -277.6943
   9   1.0000     -10.204253      -277.6718
  10   1.0000     -10.204077      -277.6671
  11   1.0000     -10.203913      -277.6626
  12   1.0000     -10.203666      -277.6559
  13   1.0000     -10.203447      -277.6499
  14   1.0000     -10.203073      -277.6397
  15   1.0000     -10.202806      -277.6325
  16   1.0000     -10.202103      -277.6133
  17   1.0000     -10.200819      -277.5784
  18   1.0000     -10.199771      -277.5499
  19   1.0000     -10.198637      -277.5190
  20   1.0000     -10.196800      -277.4690
  21   1.0000     -10.196554      -277.4623
  22   1.0000     -10.188673      -277.2479
  23   1.0000     -10.187018      -277.2029
  24   1.0000     -10.186278      -277.1827
  25   1.0000     -10.183502      -277.1072
  26   1.0000     -10.180957      -277.0379
  27   1.0000     -10.180579      -277.0276
  28   1.0000     -10.172763      -276.8150
  29   1.0000     -10.170854      -276.7630
  30   1.0000      -0.866866       -23.5886
  31   1.0000      -0.860459       -23.4143
  32   1.0000      -0.858770       -23.3683
  33   1.0000      -0.812009       -22.0959
  34   1.0000      -0.795096       -21.6357
  35   1.0000      -0.791427       -21.5358
  36   1.0000      -0.780417       -21.2362
  37   1.0000      -0.770403       -20.9637
  38   1.0000      -0.761923       -20.7330
  39   1.0000      -0.750199       -20.4140
  40   1.0000      -0.748669       -20.3723
  41   1.0000      -0.734725       -19.9929
  42   1.0000      -0.722193       -19.6519
  43   1.0000      -0.707875       -19.2623
  44   1.0000      -0.693349       -18.8670
  45   1.0000      -0.652185       -17.7469
  46   1.0000      -0.644183       -17.5291
  47   1.0000      -0.621916       -16.9232
  48   1.0000      -0.609584       -16.5876
  49   1.0000      -0.609108       -16.5747
  50   1.0000      -0.608226       -16.5507
  51   1.0000      -0.607607       -16.5338
  52   1.0000      -0.589817       -16.0497
  53   1.0000      -0.578765       -15.7490
  54   1.0000      -0.558476       -15.1969
  55   1.0000      -0.540568       -14.7096
  56   1.0000      -0.534751       -14.5513
  57   1.0000      -0.503391       -13.6980
  58   1.0000      -0.502098       -13.6628
  59   1.0000      -0.482206       -13.1215
  60   1.0000      -0.478576       -13.0227
  61   1.0000      -0.473507       -12.8848
  62   1.0000      -0.469882       -12.7861
  63   1.0000      -0.459694       -12.5089
  64   1.0000      -0.455243       -12.3878
  65   1.0000      -0.453705       -12.3459
  66   1.0000      -0.437667       -11.9095
  67   1.0000      -0.436006       -11.8643
  68   1.0000      -0.429188       -11.6788
  69   1.0000      -0.425615       -11.5816
  70   1.0000      -0.425244       -11.5715
  71   1.0000      -0.424327       -11.5465
  72   1.0000      -0.423468       -11.5232
  73   1.0000      -0.419702       -11.4207
  74   1.0000      -0.410596       -11.1729
  75   1.0000      -0.395005       -10.7486
  76   1.0000      -0.391434       -10.6515
  77   1.0000      -0.381677       -10.3859
  78   1.0000      -0.378381       -10.2963
  79   1.0000      -0.375008       -10.2045
  80   1.0000      -0.371216       -10.1013
  81   1.0000      -0.362845        -9.8735
  82   1.0000      -0.362702        -9.8696
  83   1.0000      -0.361006        -9.8235
  84   1.0000      -0.354332        -9.6419
  85   1.0000      -0.352244        -9.5850
  86   1.0000      -0.351685        -9.5698
  87   1.0000      -0.350874        -9.5478
  88   1.0000      -0.335283        -9.1235
  89   1.0000      -0.331348        -9.0165
  90   1.0000      -0.331161        -9.0114
  91   1.0000      -0.329920        -8.9776
  92   1.0000      -0.326131        -8.8745
  93   1.0000      -0.322500        -8.7757
  94   1.0000      -0.320470        -8.7204
  95   1.0000      -0.302638        -8.2352
  96   1.0000      -0.273835        -7.4514
  97   1.0000      -0.267899        -7.2899
  98   1.0000      -0.266201        -7.2437
  99   1.0000      -0.258360        -7.0303
 100   1.0000      -0.257940        -7.0189
 101   1.0000      -0.256416        -6.9774
 102   1.0000      -0.234262        -6.3746
 103   1.0000      -0.201228        -5.4757
 104   0.0000      -0.085591        -2.3290
 105   0.0000      -0.057513        -1.5650
 106   0.0000      -0.028833        -0.7846
 107   0.0000      -0.015277        -0.4157
 108   0.0000      -0.013324        -0.3626

MULLIKEN ATOMIC CHARGES AND SPIN POPULATIONS
--------------------------------------------
   0 C :   -0.304603    0.095136
   1 C :   -0.413832   -0.064462
   2 C :   -0.415971    0.028129
   3 C :    0.496641    0.203490
   4 C :    0.376698   -0.138453
   5 C :   -0.448315    0.212274
   6 C :    0.555604   -0.091223
   7 C :    0.236974    0.219098
   8 C :   -0.388901   -0.109865
   9 H :    0.131418   -0.011386
  10 H :    0.133110    0.005100
  11 C :   -0.266896    0.694342
  12 H :    0.126717   -0.036416
  13 C :   -0.272987   -0.044759
  14 H :    0.152809    0.029406
  15 H :    0.152252    0.029034
  16 C :   -0.290353    0.002155
  17 H :    0.155353   -0.000148
  18 H :    0.155004   -0.000140
  19 C :   -0.510862   -0.000783
  20 H :    0.159611    0.000165
  21 H :    0.159590    0.000165
  22 C :   -0.357561   -0.016452
  23 H :    0.152454    0.010073
  24 H :    0.152522    0.010098
  25 C :   -0.273085    0.000897
  26 H :    0.142247    0.000173
  27 H :    0.142340    0.000174
  28 C :   -0.263502   -0.000235
  29 H :    0.144514    0.000042
  30 H :    0.144539    0.000042
  31 C :   -0.511758   -0.000084
  32 H :    0.160104    0.000022
  33 H :    0.160088    0.000022
  34 C :   -0.290931   -0.043636
  35 H :    0.146226   -0.000164
  36 H :    0.144047   -0.000005
  37 C :    0.583700    0.008925
  38 C :   -0.282065   -0.010540
  39 C :   -0.098380    0.005385
  40 C :   -0.122558   -0.011527
  41 C :   -0.103134    0.005379
  42 C :   -0.272294   -0.010581
  43 H :    0.107232    0.000634
  44 H :    0.106539   -0.000255
  45 H :    0.120341    0.000545
  46 H :    0.119882    0.000545
  47 H :    0.106524   -0.000254
  48 C :    0.591631   -0.019262
  49 C :   -0.281221    0.024855
  50 C :   -0.100589   -0.013191
  51 C :   -0.124999    0.028484
  52 C :   -0.100650   -0.013194
  53 C :   -0.277327    0.025173
  54 H :    0.106928   -0.001601
  55 H :    0.106202    0.000637
  56 H :    0.117092   -0.001287
  57 H :    0.119835   -0.001336
  58 H :    0.106007    0.000640
Sum of atomic charges         :    0.0000000

LOEWDIN ATOMIC CHARGES AND SPIN POPULATIONS
-------------------------------------------
   0 C :   -0.037075    0.071690
   1 C :   -0.030012   -0.029112
   2 C :   -0.028246    0.016475
   3 C :   -0.054366    0.159933
   4 C :   -0.066749   -0.072283
   5 C :    0.008193    0.168734
   6 C :   -0.068005   -0.059092
   7 C :   -0.040823    0.172527
   8 C :   -0.010155   -0.065044
   9 H :    0.059166    0.001226
  10 H :    0.060630   -0.000592
  11 C :   -0.009000    0.573368
  12 H :    0.056878    0.004586
  13 C :   -0.082791    0.003443
  14 H :    0.054166    0.024073
  15 H :    0.053982    0.023737
  16 C :   -0.088051    0.000950
  17 H :    0.042161   -0.000045
  18 H :    0.042086   -0.000045
  19 C :   -0.078181   -0.000162
  20 H :    0.034310    0.000199
  21 H :    0.034310    0.000201
  22 C :   -0.045063    0.001593
  23 H :    0.059178    0.008011
  24 H :    0.059185    0.008027
  25 C :   -0.079756    0.000187
  26 H :    0.044652    0.000008
  27 H :    0.044683    0.000007
  28 C :   -0.090622   -0.000006
  29 H :    0.040785    0.000057
  30 H :    0.040788    0.000057
  31 C :   -0.078953   -0.000033
  32 H :    0.034104    0.000014
  33 H :    0.034104    0.000014
  34 C :   -0.035164   -0.033929
  35 H :    0.032294   -0.000083
  36 H :    0.031545   -0.000006
  37 C :   -0.071815    0.004783
  38 C :   -0.015470   -0.008471
  39 C :   -0.042615    0.003308
  40 C :   -0.042753   -0.009026
  41 C :   -0.042971    0.003305
  42 C :   -0.015933   -0.008462
  43 H :    0.049127   -0.000069
  44 H :    0.050275    0.000028
  45 H :    0.056086   -0.000035
  46 H :    0.055800   -0.000035
  47 H :    0.050349    0.000028
  48 C :   -0.071626   -0.010537
  49 C :   -0.016977    0.020049
  50 C :   -0.043350   -0.008102
  51 C :   -0.043833    0.022214
  52 C :   -0.043033   -0.008079
  53 C :   -0.015764    0.020228
  54 H :    0.048919    0.000162
  55 H :    0.050233   -0.000061
  56 H :    0.055051    0.000074
  57 H :    0.055952    0.000075
  58 H :    0.050158   -0.000063

  Mayer bond orders larger than 0.100000
B(  0-C ,  1-C ) :   2.4308 B(  0-C , 48-C ) :   1.0238 B(  1-C ,  3-C ) :   0.7989
B(  2-C ,  6-C ) :   0.7637 B(  2-C , 34-C ) :   2.4868 B(  3-C ,  4-C ) :   1.2756
B(  3-C ,  7-C ) :   0.1054 B(  3-C ,  8-C ) :   1.4358 B(  4-C ,  5-C ) :   1.2261
B(  4-C ,  6-C ) :   0.1152 B(  4-C , 11-C ) :   1.2925 B(  5-C ,  6-C ) :   1.4915
B(  5-C ,  9-H ) :   0.9696 B(  6-C ,  7-C ) :   1.3342 B(  6-C ,  8-C ) :   0.1114
B(  7-C ,  8-C ) :   1.4141 B(  7-C , 22-C ) :   0.9625 B(  8-C , 10-H ) :   0.9710
B( 11-C , 12-H ) :   0.9827 B( 11-C , 13-C ) :   0.9981 B( 13-C , 14-H ) :   0.9562
B( 13-C , 15-H ) :   0.9559 B( 13-C , 16-C ) :   0.9818 B( 16-C , 17-H ) :   0.9725
B( 16-C , 18-H ) :   0.9722 B( 16-C , 19-C ) :   0.9616 B( 19-C , 20-H ) :   0.9728
B( 19-C , 21-H ) :   0.9729 B( 19-C , 35-H ) :   0.9675 B( 22-C , 23-H ) :   0.9554
B( 22-C , 24-H ) :   0.9556 B( 22-C , 25-C ) :   1.0235 B( 25-C , 26-H ) :   0.9615
B( 25-C , 27-H ) :   0.9616 B( 25-C , 28-C ) :   0.9858 B( 28-C , 29-H ) :   0.9718
B( 28-C , 30-H ) :   0.9719 B( 28-C , 31-C ) :   0.9543 B( 31-C , 32-H ) :   0.9732
B( 31-C , 33-H ) :   0.9732 B( 31-C , 36-H ) :   0.9673 B( 34-C , 37-C ) :   1.0109
B( 37-C , 38-C ) :   1.3911 B( 37-C , 42-C ) :   1.3852 B( 38-C , 39-C ) :   1.4767
B( 38-C , 45-H ) :   0.9819 B( 39-C , 40-C ) :   1.4525 B( 39-C , 47-H ) :   0.9758
B( 40-C , 41-C ) :   1.4554 B( 40-C , 43-H ) :   0.9656 B( 41-C , 42-C ) :   1.4764
B( 41-C , 44-H ) :   0.9767 B( 42-C , 46-H ) :   0.9797 B( 48-C , 49-C ) :   1.3833
B( 48-C , 53-C ) :   1.3811 B( 49-C , 50-C ) :   1.4782 B( 49-C , 51-C ) :   0.1007
B( 49-C , 56-H ) :   0.9810 B( 50-C , 51-C ) :   1.4532 B( 50-C , 58-H ) :   0.9766
B( 51-C , 52-C ) :   1.4514 B( 51-C , 54-H ) :   0.9655 B( 52-C , 53-C ) :   1.4781
B( 52-C , 55-H ) :   0.9760 B( 53-C , 57-H ) :   0.9820

FINAL SINGLE POINT ENERGY     -1159.917052380546

DIPOLE MOMENT
-------------
                                X             Y             Z
Electronic contribution:     -0.41855       2.19560       0.04734
Nuclear contribution   :      0.55407      -2.16967      -0.04797
                        -----------------------------------------
Total Dipole Moment    :      0.13552       0.02593      -0.00062
                        -----------------------------------------
Magnitude (a.u.)       :      0.13798
Magnitude (Debye)      :      0.35072

Rotational constants in cm-1:     0.005953     0.001983     0.001491
Rotational constants in MHz :   178.474253    59.455247    44.684328

CHEMICAL SHIELDING SUMMARY (ppm)  --  Orbital contribution
----------------------------------------------------------

  Nucleus  Element    Isotropic     Anisotropy
  -------  -------  ------------   ------------
      9       H           81.021         77.302
     10       H           86.829         66.396
     12       H           70.926         27.006
     14       H           82.405         27.243
     15       H           83.062         26.658
     17       H           41.380         33.517
     18       H           40.730         33.323
     20       H           29.857         21.694
     21       H           29.303         22.084
     23       H           81.954         53.778
     24       H           81.868         53.817
     26       H           91.996         26.476
     27       H           92.088         26.499
     29       H           38.675         34.378
     30       H           38.586         34.428
     32       H           35.971         21.295
     33       H           35.922         21.272
     35       H          -56.745         19.300
     36       H          -55.188         18.030
     43       H         -175.476       -230.739
     44       H          -82.409         -1.532
     45       H          100.993         22.120
     46       H          100.054         25.172
     47       H          -81.918         -0.979
     54       H         -174.313       -224.557
     55       H          -75.678          0.424
     56       H           93.546         23.493
     57       H          107.128         22.851
     58       H          -87.377         -3.627

                             ****ORCA TERMINATED NORMALLY****
TOTAL RUN TIME: 0 days 3 hours 9 minutes 52 seconds 708 msec
