                         Program Version 4.2.1 -  RELEASE  -
|  1> ! B3LYP EPR-II AUTOAUX
|  2> %pal nprocs 16 end
|  3> *XYZFile 0 2 opt.xyz
|  4> %EPRNMR
|  5>         GTENSOR   TRUE
|  6>         NUCLEI    = ALL H {AISO, ADIP, AORB}
|  7> END
|  8>
|  9>                          ****END OF INPUT****

CARTESIAN COORDINATES (ANGSTROEM)
---------------------------------
  C     -4.059408   -0.122213   -0.002174
  C     -2.837336   -0.050494   -0.000179
  C      2.839203    0.027272    0.000510
  C     -1.418074    0.005066    0.000148
  C     -0.716102    1.269265   -0.002866
  C      0.705740    1.207940   -0.002662
  C      1.411057    0.001829    0.000453
  C      0.705866   -1.245361    0.003520
  C     -0.688004   -1.200077    0.003370
  H      1.277031    2.136393   -0.004922
  H     -1.257013   -2.129589    0.005595
  C     -1.405585    2.500624   -0.005602
  H     -2.498389    2.461116   -0.005185
  C     -0.754044    3.851057   -0.008468
  H     -0.083548    3.951220    0.870291
  H     -0.081893    3.946772   -0.886448
  C     -1.755767    5.012656   -0.012321
  H     -2.413289    4.917358   -0.896170
  H     -2.415159    4.921675    0.870597
  C     -1.083525    6.386501   -0.014965
  H     -0.442337    6.517574   -0.903998
  H     -0.444160    6.521890    0.874729
  C      1.486166   -2.543568    0.006452
  H      2.164723   -2.540582   -0.867702
  H      2.164063   -2.537147    0.881106
  C      0.674082   -3.841117    0.008575
  H      0.010558   -3.867439    0.893056
  H      0.011127   -3.870579   -0.876232
  C      1.560547   -5.091929    0.011000
  H      2.227183   -5.067476   -0.871585
  H      2.226256   -5.064736    0.894207
  C      0.760876   -6.396654    0.012590
  H      0.111515   -6.470081   -0.877169
  H      0.110397   -6.467238    0.901767
  C      4.061115    0.054591    0.001636
  H     -1.827769    7.198951   -0.017720
  H      1.423925   -7.276837    0.014424
  C      5.488861    0.089015    0.001505
  C      6.178651    1.321015   -0.011309
  C      7.572806    1.349364   -0.011531
  C      8.304688    0.156569    0.000994
  C      7.631098   -1.070145    0.013804
  C      6.237240   -1.108406    0.014112
  H      9.397194    0.183123    0.000796
  H      8.196790   -2.004959    0.023768
  H      5.605954    2.250294   -0.021264
  H      5.709962   -2.064326    0.024292
  H      8.093261    2.310162   -0.021708
  C     -5.482915   -0.211234   -0.002975
  C     -6.279610    0.955478   -0.019872
  C     -7.670625    0.861632   -0.020449
  C     -8.295228   -0.390821   -0.004263
  C     -7.516015   -1.553428    0.012521
  C     -6.124425   -1.470007    0.013201
  H     -9.385790   -0.461156   -0.004809
  H     -7.997918   -2.534163    0.025380
  H     -5.791674    1.932007   -0.032786
  H     -5.515560   -2.375894    0.026514
  H     -8.272734    1.773348   -0.033778

 Total Charge           Charge          ....    0
 Multiplicity           Mult            ....    2
 Number of Electrons    NEL             ....  209
 Basis Dimension        Dim             ....  713

ORBITAL ENERGIES
----------------
                 SPIN UP ORBITALS
  NO   OCC          E(Eh)            E(eV)
   0   1.0000     -10.226952      -278.2895
   1   1.0000     -10.225496      -278.2499
   2   1.0000     -10.221916      -278.1525
   3   1.0000     -10.219941      -278.0987
   4   1.0000     -10.209659      -277.8190
   5   1.0000     -10.206534      -277.7339
   6   1.0000     -10.205000      -277.6922
   7   1.0000     -10.204865      -277.6885
   8   1.0000     -10.204709      -277.6843
   9   1.0000     -10.203982      -277.6645
  10   1.0000     -10.203829      -277.6603
  11   1.0000     -10.203806      -277.6597
  12   1.0000     -10.203619      -277.6546
  13   1.0000     -10.203453      -277.6501
  14   1.0000     -10.202562      -277.6258
  15   1.0000     -10.202378      -277.6208
  16   1.0000     -10.201223      -277.5894
  17   1.0000     -10.200517      -277.5702
  18   1.0000     -10.199632      -277.5461
  19   1.0000     -10.199091      -277.5314
  20   1.0000     -10.197976      -277.5010
  21   1.0000     -10.197330      -277.4835
  22   1.0000     -10.194908      -277.4175
  23   1.0000     -10.189435      -277.2686
  24   1.0000     -10.187505      -277.2161
  25   1.0000     -10.185241      -277.1545
  26   1.0000     -10.182737      -277.0864
  27   1.0000     -10.182288      -277.0741
  28   1.0000     -10.175214      -276.8816
  29   1.0000     -10.173536      -276.8360
  30   1.0000      -0.871827       -23.7236
  31   1.0000      -0.862985       -23.4830
  32   1.0000      -0.861731       -23.4489
  33   1.0000      -0.818258       -22.2659
  34   1.0000      -0.798356       -21.7244
  35   1.0000      -0.794626       -21.6229
  36   1.0000      -0.782346       -21.2887
  37   1.0000      -0.772687       -21.0259
  38   1.0000      -0.764971       -20.8159
  39   1.0000      -0.750977       -20.4351
  40   1.0000      -0.749849       -20.4044
  41   1.0000      -0.737558       -20.0700
  42   1.0000      -0.725879       -19.7522
  43   1.0000      -0.709880       -19.3168
  44   1.0000      -0.695772       -18.9329
  45   1.0000      -0.655141       -17.8273
  46   1.0000      -0.646333       -17.5876
  47   1.0000      -0.623478       -16.9657
  48   1.0000      -0.612795       -16.6750
  49   1.0000      -0.609466       -16.5844
  50   1.0000      -0.609039       -16.5728
  51   1.0000      -0.608031       -16.5454
  52   1.0000      -0.589957       -16.0535
  53   1.0000      -0.579084       -15.7577
  54   1.0000      -0.560451       -15.2507
  55   1.0000      -0.541507       -14.7352
  56   1.0000      -0.535867       -14.5817
  57   1.0000      -0.506722       -13.7886
  58   1.0000      -0.504113       -13.7176
  59   1.0000      -0.480966       -13.0877
  60   1.0000      -0.479013       -13.0346
  61   1.0000      -0.474946       -12.9239
  62   1.0000      -0.470101       -12.7921
  63   1.0000      -0.462043       -12.5728
  64   1.0000      -0.456954       -12.4344
  65   1.0000      -0.455588       -12.3972
  66   1.0000      -0.437570       -11.9069
  67   1.0000      -0.435973       -11.8634
  68   1.0000      -0.430350       -11.7104
  69   1.0000      -0.428141       -11.6503
  70   1.0000      -0.425381       -11.5752
  71   1.0000      -0.425040       -11.5659
  72   1.0000      -0.423836       -11.5332
  73   1.0000      -0.421293       -11.4640
  74   1.0000      -0.411010       -11.1842
  75   1.0000      -0.397915       -10.8278
  76   1.0000      -0.397055       -10.8044
  77   1.0000      -0.383768       -10.4428
  78   1.0000      -0.380942       -10.3660
  79   1.0000      -0.377555       -10.2738
  80   1.0000      -0.374299       -10.1852
  81   1.0000      -0.364212        -9.9107
  82   1.0000      -0.362482        -9.8636
  83   1.0000      -0.360842        -9.8190
  84   1.0000      -0.355487        -9.6733
  85   1.0000      -0.353221        -9.6116
  86   1.0000      -0.351504        -9.5649
  87   1.0000      -0.350250        -9.5308
  88   1.0000      -0.339095        -9.2272
  89   1.0000      -0.332147        -9.0382
  90   1.0000      -0.332079        -9.0363
  91   1.0000      -0.330652        -8.9975
  92   1.0000      -0.326991        -8.8979
  93   1.0000      -0.322433        -8.7738
  94   1.0000      -0.321301        -8.7430
  95   1.0000      -0.305930        -8.3248
  96   1.0000      -0.278378        -7.5751
  97   1.0000      -0.271953        -7.4002
  98   1.0000      -0.268507        -7.3064
  99   1.0000      -0.267087        -7.2678
 100   1.0000      -0.258735        -7.0405
 101   1.0000      -0.258105        -7.0234
 102   1.0000      -0.236582        -6.4377
 103   1.0000      -0.208780        -5.6812
 104   1.0000      -0.169866        -4.6223
 105   0.0000      -0.065721        -1.7884
 106   0.0000      -0.029916        -0.8141
 107   0.0000      -0.013940        -0.3793
 108   0.0000      -0.013065        -0.3555
 109   0.0000       0.001922         0.0523

                 SPIN DOWN ORBITALS
  NO   OCC          E(Eh)            E(eV)
   0   1.0000     -10.226835      -278.2863
   1   1.0000     -10.225821      -278.2587
   2   1.0000     -10.221457      -278.1400
   3   1.0000     -10.218593      -278.0620
   4   1.0000     -10.208927      -277.7990
   5   1.0000     -10.206324      -277.7282
   6   1.0000     -10.205096      -277.6948
   7   1.0000     -10.204974      -277.6915
   8   1.0000     -10.204832      -277.6876
   9   1.0000     -10.203951      -277.6636
  10   1.0000     -10.203788      -277.6592
  11   1.0000     -10.203542      -277.6525
  12   1.0000     -10.203338      -277.6470
  13   1.0000     -10.203115      -277.6409
  14   1.0000     -10.202658      -277.6284
  15   1.0000     -10.202424      -277.6221
  16   1.0000     -10.201412      -277.5945
  17   1.0000     -10.200154      -277.5603
  18   1.0000     -10.199078      -277.5310
  19   1.0000     -10.197911      -277.4993
  20   1.0000     -10.196635      -277.4645
  21   1.0000     -10.196422      -277.4587
  22   1.0000     -10.190090      -277.2864
  23   1.0000     -10.187699      -277.2214
  24   1.0000     -10.187595      -277.2186
  25   1.0000     -10.185204      -277.1535
  26   1.0000     -10.182738      -277.0864
  27   1.0000     -10.182285      -277.0741
  28   1.0000     -10.175222      -276.8819
  29   1.0000     -10.173538      -276.8360
  30   1.0000      -0.868635       -23.6368
  31   1.0000      -0.863024       -23.4841
  32   1.0000      -0.861258       -23.4360
  33   1.0000      -0.813566       -22.1383
  34   1.0000      -0.796397       -21.6711
  35   1.0000      -0.792840       -21.5743
  36   1.0000      -0.781966       -21.2784
  37   1.0000      -0.771861       -21.0034
  38   1.0000      -0.762970       -20.7615
  39   1.0000      -0.751113       -20.4388
  40   1.0000      -0.749502       -20.3950
  41   1.0000      -0.735808       -20.0223
  42   1.0000      -0.723044       -19.6750
  43   1.0000      -0.708704       -19.2848
  44   1.0000      -0.693641       -18.8749
  45   1.0000      -0.652177       -17.7466
  46   1.0000      -0.644972       -17.5506
  47   1.0000      -0.622327       -16.9344
  48   1.0000      -0.609538       -16.5864
  49   1.0000      -0.608946       -16.5702
  50   1.0000      -0.608080       -16.5467
  51   1.0000      -0.607420       -16.5288
  52   1.0000      -0.589086       -16.0298
  53   1.0000      -0.577464       -15.7136
  54   1.0000      -0.557623       -15.1737
  55   1.0000      -0.541112       -14.7244
  56   1.0000      -0.535328       -14.5670
  57   1.0000      -0.503674       -13.7057
  58   1.0000      -0.502407       -13.6712
  59   1.0000      -0.480803       -13.0833
  60   1.0000      -0.477920       -13.0049
  61   1.0000      -0.473942       -12.8966
  62   1.0000      -0.469277       -12.7697
  63   1.0000      -0.458687       -12.4815
  64   1.0000      -0.457008       -12.4358
  65   1.0000      -0.455387       -12.3917
  66   1.0000      -0.437318       -11.9000
  67   1.0000      -0.435603       -11.8533
  68   1.0000      -0.428835       -11.6692
  69   1.0000      -0.426577       -11.6078
  70   1.0000      -0.425175       -11.5696
  71   1.0000      -0.424189       -11.5428
  72   1.0000      -0.423685       -11.5291
  73   1.0000      -0.418787       -11.3958
  74   1.0000      -0.410527       -11.1710
  75   1.0000      -0.395946       -10.7742
  76   1.0000      -0.390581       -10.6282
  77   1.0000      -0.382433       -10.4065
  78   1.0000      -0.379823       -10.3355
  79   1.0000      -0.375211       -10.2100
  80   1.0000      -0.371687       -10.1141
  81   1.0000      -0.363094        -9.8803
  82   1.0000      -0.362387        -9.8610
  83   1.0000      -0.360599        -9.8124
  84   1.0000      -0.354690        -9.6516
  85   1.0000      -0.351527        -9.5655
  86   1.0000      -0.350276        -9.5315
  87   1.0000      -0.350081        -9.5262
  88   1.0000      -0.336833        -9.1657
  89   1.0000      -0.331611        -9.0236
  90   1.0000      -0.330719        -8.9993
  91   1.0000      -0.328481        -8.9384
  92   1.0000      -0.326611        -8.8875
  93   1.0000      -0.321674        -8.7532
  94   1.0000      -0.320945        -8.7334
  95   1.0000      -0.303660        -8.2630
  96   1.0000      -0.274594        -7.4721
  97   1.0000      -0.268369        -7.3027
  98   1.0000      -0.266651        -7.2559
  99   1.0000      -0.259117        -7.0509
 100   1.0000      -0.258212        -7.0263
 101   1.0000      -0.257118        -6.9965
 102   1.0000      -0.234813        -6.3896
 103   1.0000      -0.201492        -5.4829
 104   0.0000      -0.085923        -2.3381
 105   0.0000      -0.057469        -1.5638
 106   0.0000      -0.028360        -0.7717
 107   0.0000      -0.014262        -0.3881
 108   0.0000      -0.012255        -0.3335

MULLIKEN ATOMIC CHARGES AND SPIN POPULATIONS
--------------------------------------------
   0 C :   -0.311035    0.092677
   1 C :   -0.402190   -0.062229
   2 C :   -0.418253    0.024090
   3 C :    0.501675    0.201161
   4 C :    0.370912   -0.135070
   5 C :   -0.447215    0.206730
   6 C :    0.563322   -0.087015
   7 C :    0.226253    0.215622
   8 C :   -0.392265   -0.106367
   9 H :    0.134668   -0.011155
  10 H :    0.138324    0.004916
  11 C :   -0.276856    0.692809
  12 H :    0.133859   -0.037251
  13 C :   -0.268107   -0.045544
  14 H :    0.149416    0.030446
  15 H :    0.149364    0.030380
  16 C :   -0.283222    0.002179
  17 H :    0.152465   -0.000209
  18 H :    0.152518   -0.000207
  19 C :   -0.509263   -0.000768
  20 H :    0.157396    0.000188
  21 H :    0.157405    0.000187
  22 C :   -0.351485   -0.016404
  23 H :    0.150093    0.010436
  24 H :    0.149934    0.010454
  25 C :   -0.266600    0.000869
  26 H :    0.139488    0.000174
  27 H :    0.139504    0.000174
  28 C :   -0.253247   -0.000250
  29 H :    0.140472    0.000053
  30 H :    0.140427    0.000053
  31 C :   -0.510661   -0.000081
  32 H :    0.157843    0.000025
  33 H :    0.157805    0.000025
  34 C :   -0.286130   -0.039416
  35 H :    0.145818   -0.000164
  36 H :    0.142691   -0.000005
  37 C :    0.586679    0.007194
  38 C :   -0.285448   -0.008822
  39 C :   -0.099909    0.004016
  40 C :   -0.137194   -0.009787
  41 C :   -0.103191    0.004002
  42 C :   -0.277661   -0.008860
  43 H :    0.117641    0.000509
  44 H :    0.108869   -0.000162
  45 H :    0.122013    0.000420
  46 H :    0.122127    0.000419
  47 H :    0.108780   -0.000160
  48 C :    0.596267   -0.017984
  49 C :   -0.287787    0.023530
  50 C :   -0.098659   -0.012109
  51 C :   -0.139585    0.027341
  52 C :   -0.102567   -0.012146
  53 C :   -0.280549    0.023912
  54 H :    0.116857   -0.001551
  55 H :    0.108406    0.000573
  56 H :    0.120322   -0.001170
  57 H :    0.121221   -0.001255
  58 H :    0.108243    0.000575
Sum of atomic charges         :   -0.0000000

LOEWDIN ATOMIC CHARGES AND SPIN POPULATIONS
-------------------------------------------
   0 C :   -0.036622    0.069643
   1 C :   -0.029528   -0.027120
   2 C :   -0.027987    0.013727
   3 C :   -0.054788    0.158241
   4 C :   -0.067570   -0.069538
   5 C :    0.007117    0.164915
   6 C :   -0.068623   -0.056370
   7 C :   -0.042610    0.170130
   8 C :   -0.012049   -0.062334
   9 H :    0.061692    0.001123
  10 H :    0.063463   -0.000545
  11 C :   -0.013656    0.569974
  12 H :    0.060687    0.004053
  13 C :   -0.087517    0.003608
  14 H :    0.056630    0.025022
  15 H :    0.056598    0.024967
  16 C :   -0.094818    0.000989
  17 H :    0.044995   -0.000065
  18 H :    0.045005   -0.000064
  19 C :   -0.084616   -0.000111
  20 H :    0.036800    0.000219
  21 H :    0.036800    0.000219
  22 C :   -0.049530    0.001625
  23 H :    0.061931    0.008284
  24 H :    0.061905    0.008293
  25 C :   -0.085080    0.000184
  26 H :    0.047308    0.000006
  27 H :    0.047329    0.000005
  28 C :   -0.096827    0.000010
  29 H :    0.043386    0.000063
  30 H :    0.043370    0.000063
  31 C :   -0.085303   -0.000031
  32 H :    0.036619    0.000016
  33 H :    0.036613    0.000016
  34 C :   -0.034482   -0.030939
  35 H :    0.034797   -0.000082
  36 H :    0.033888   -0.000005
  37 C :   -0.073306    0.003689
  38 C :   -0.017223   -0.007214
  39 C :   -0.045173    0.002391
  40 C :   -0.047168   -0.007761
  41 C :   -0.045376    0.002386
  42 C :   -0.017756   -0.007206
  43 H :    0.052635   -0.000073
  44 H :    0.052958    0.000032
  45 H :    0.058554   -0.000040
  46 H :    0.058336   -0.000041
  47 H :    0.053027    0.000032
  48 C :   -0.073062   -0.009672
  49 C :   -0.018907    0.019141
  50 C :   -0.045640   -0.007345
  51 C :   -0.048160    0.021348
  52 C :   -0.045668   -0.007333
  53 C :   -0.017483    0.019313
  54 H :    0.052410    0.000147
  55 H :    0.052879   -0.000058
  56 H :    0.057626    0.000067
  57 H :    0.058357    0.000065
  58 H :    0.052813   -0.000059

  Mayer bond orders larger than 0.100000
B(  0-C ,  1-C ) :   2.4276 B(  0-C , 48-C ) :   1.0265 B(  1-C ,  3-C ) :   0.8059
B(  2-C ,  6-C ) :   0.7658 B(  2-C , 34-C ) :   2.4824 B(  3-C ,  4-C ) :   1.2846
B(  3-C ,  7-C ) :   0.1099 B(  3-C ,  8-C ) :   1.4318 B(  4-C ,  5-C ) :   1.2388
B(  4-C ,  6-C ) :   0.1206 B(  4-C , 11-C ) :   1.2907 B(  5-C ,  6-C ) :   1.4884
B(  5-C ,  9-H ) :   0.9665 B(  6-C ,  7-C ) :   1.3446 B(  6-C ,  8-C ) :   0.1115
B(  7-C ,  8-C ) :   1.4275 B(  7-C , 22-C ) :   0.9664 B(  8-C , 10-H ) :   0.9674
B( 11-C , 12-H ) :   0.9803 B( 11-C , 13-C ) :   0.9953 B( 13-C , 14-H ) :   0.9553
B( 13-C , 15-H ) :   0.9552 B( 13-C , 16-C ) :   0.9868 B( 16-C , 17-H ) :   0.9710
B( 16-C , 18-H ) :   0.9710 B( 16-C , 19-C ) :   0.9609 B( 19-C , 20-H ) :   0.9735
B( 19-C , 21-H ) :   0.9735 B( 19-C , 35-H ) :   0.9670 B( 22-C , 23-H ) :   0.9551
B( 22-C , 24-H ) :   0.9548 B( 22-C , 25-C ) :   1.0202 B( 25-C , 26-H ) :   0.9592
B( 25-C , 27-H ) :   0.9593 B( 25-C , 28-C ) :   0.9895 B( 28-C , 29-H ) :   0.9721
B( 28-C , 30-H ) :   0.9721 B( 28-C , 31-C ) :   0.9513 B( 31-C , 32-H ) :   0.9739
B( 31-C , 33-H ) :   0.9739 B( 31-C , 36-H ) :   0.9682 B( 34-C , 37-C ) :   1.0153
B( 37-C , 38-C ) :   1.3925 B( 37-C , 42-C ) :   1.3863 B( 38-C , 39-C ) :   1.4822
B( 38-C , 45-H ) :   0.9805 B( 39-C , 40-C ) :   1.4548 B( 39-C , 47-H ) :   0.9737
B( 40-C , 41-C ) :   1.4551 B( 40-C , 43-H ) :   0.9641 B( 41-C , 42-C ) :   1.4838
B( 41-C , 44-H ) :   0.9752 B( 42-C , 46-H ) :   0.9772 B( 48-C , 49-C ) :   1.3865
B( 48-C , 53-C ) :   1.3811 B( 49-C , 50-C ) :   1.4838 B( 49-C , 51-C ) :   0.1014
B( 49-C , 56-H ) :   0.9775 B( 50-C , 51-C ) :   1.4515 B( 50-C , 58-H ) :   0.9760
B( 51-C , 52-C ) :   1.4557 B( 51-C , 54-H ) :   0.9638 B( 52-C , 53-C ) :   1.4834
B( 52-C , 55-H ) :   0.9736 B( 53-C , 57-H ) :   0.9815

FINAL SINGLE POINT ENERGY     -1159.915257955126

DIPOLE MOMENT
-------------
                                X             Y             Z
Electronic contribution:     -0.51118       2.20141      -0.00021
Nuclear contribution   :      0.65582      -2.17487      -0.00019
                        -----------------------------------------
Total Dipole Moment    :      0.14464       0.02653      -0.00040
                        -----------------------------------------
Magnitude (a.u.)       :      0.14706
Magnitude (Debye)      :      0.37378

Rotational constants in cm-1:     0.005983     0.001991     0.001497
Rotational constants in MHz :   179.375312    59.697017    44.878219

                             ****ORCA TERMINATED NORMALLY****
TOTAL RUN TIME: 0 days 2 hours 21 minutes 41 seconds 63 msec
