                         Program Version 4.2.1 -  RELEASE  -
|  1> ! B3LYP cc-pVDZ OPT
|  2> %pal nprocs 16 end
|  3> *XYZFile 0 2 chain.xyz
|  4>
|  5>                          ****END OF INPUT****
 Total Charge           Charge          ....    0
 Multiplicity           Mult            ....    2
 Number of Electrons    NEL             ....  209
FINAL SINGLE POINT ENERGY     -1159.835309842893
FINAL SINGLE POINT ENERGY     -1159.835423497554
FINAL SINGLE POINT ENERGY     -1159.835437763238
FINAL SINGLE POINT ENERGY     -1159.835439685324
FINAL SINGLE POINT ENERGY     -1159.835440097356
                    ***********************HURRAY********************

CARTESIAN COORDINATES (ANGSTROEM)
---------------------------------
  C     -4.059408   -0.122213   -0.002174
  C     -2.837336   -0.050494   -0.000179
  C      2.839203    0.027272    0.000510
  C     -1.418074    0.005066    0.000148
  C     -0.716102    1.269265   -0.002866
  C      0.705740    1.207940   -0.002662
  C      1.411057    0.001829    0.000453
  C      0.705866   -1.245361    0.003520
  C     -0.688004   -1.200077    0.003370
  H      1.277031    2.136393   -0.004922
  H     -1.257013   -2.129589    0.005595
  C     -1.405585    2.500624   -0.005602
  H     -2.498389    2.461116   -0.005185
  C     -0.754044    3.851057   -0.008468
  H     -0.083548    3.951220    0.870291
  H     -0.081893    3.946772   -0.886448
  C     -1.755767    5.012656   -0.012321
  H     -2.413289    4.917358   -0.896170
  H     -2.415159    4.921675    0.870597
  C     -1.083525    6.386501   -0.014965
  H     -0.442337    6.517574   -0.903998
  H     -0.444160    6.521890    0.874729
  C      1.486166   -2.543568    0.006452
  H      2.164723   -2.540582   -0.867702
  H      2.164063   -2.537147    0.881106
  C      0.674082   -3.841117    0.008575
  H      0.010558   -3.867439    0.893056
  H      0.011127   -3.870579   -0.876232
  C      1.560547   -5.091929    0.011000
  H      2.227183   -5.067476   -0.871585
  H      2.226256   -5.064736    0.894207
  C      0.760876   -6.396654    0.012590
  H      0.111515   -6.470081   -0.877169
  H      0.110397   -6.467238    0.901767
  C      4.061115    0.054591    0.001636
  H     -1.827769    7.198951   -0.017720
  H      1.423925   -7.276837    0.014424
  C      5.488861    0.089015    0.001505
  C      6.178651    1.321015   -0.011309
  C      7.572806    1.349364   -0.011531
  C      8.304688    0.156569    0.000994
  C      7.631098   -1.070145    0.013804
  C      6.237240   -1.108406    0.014112
  H      9.397194    0.183123    0.000796
  H      8.196790   -2.004959    0.023768
  H      5.605954    2.250294   -0.021264
  H      5.709962   -2.064326    0.024292
  H      8.093261    2.310162   -0.021708
  C     -5.482915   -0.211234   -0.002975
  C     -6.279610    0.955478   -0.019872
  C     -7.670625    0.861632   -0.020449
  C     -8.295228   -0.390821   -0.004263
  C     -7.516015   -1.553428    0.012521
  C     -6.124425   -1.470007    0.013201
  H     -9.385790   -0.461156   -0.004809
  H     -7.997918   -2.534163    0.025380
  H     -5.791674    1.932007   -0.032786
  H     -5.515560   -2.375894    0.026514
  H     -8.272734    1.773348   -0.033778

 Multiplicity           Mult            ....    2
 Number of Electrons    NEL             ....  209
 Basis Dimension        Dim             ....  565

ORBITAL ENERGIES
----------------
                 SPIN UP ORBITALS
  NO   OCC          E(Eh)            E(eV)
   0   1.0000     -10.215816      -277.9865
   1   1.0000     -10.214298      -277.9452
   2   1.0000     -10.212583      -277.8985
   3   1.0000     -10.210387      -277.8388
   4   1.0000     -10.201001      -277.5834
   5   1.0000     -10.196802      -277.4691
   6   1.0000     -10.196540      -277.4620
   7   1.0000     -10.196362      -277.4571
   8   1.0000     -10.195542      -277.4348
   9   1.0000     -10.195483      -277.4332
  10   1.0000     -10.195155      -277.4243
  11   1.0000     -10.194989      -277.4197
  12   1.0000     -10.194796      -277.4145
  13   1.0000     -10.194322      -277.4016
  14   1.0000     -10.193547      -277.3805
  15   1.0000     -10.193402      -277.3766
  16   1.0000     -10.193015      -277.3660
  17   1.0000     -10.191583      -277.3271
  18   1.0000     -10.188726      -277.2493
  19   1.0000     -10.188306      -277.2379
  20   1.0000     -10.187950      -277.2282
  21   1.0000     -10.187703      -277.2215
  22   1.0000     -10.186723      -277.1948
  23   1.0000     -10.186434      -277.1870
  24   1.0000     -10.185646      -277.1655
  25   1.0000     -10.184044      -277.1219
  26   1.0000     -10.181948      -277.0649
  27   1.0000     -10.181516      -277.0531
  28   1.0000     -10.177119      -276.9335
  29   1.0000     -10.175769      -276.8968
  30   1.0000      -0.872400       -23.7392
  31   1.0000      -0.862775       -23.4773
  32   1.0000      -0.861576       -23.4447
  33   1.0000      -0.819262       -22.2933
  34   1.0000      -0.798657       -21.7326
  35   1.0000      -0.796319       -21.6689
  36   1.0000      -0.781825       -21.2745
  37   1.0000      -0.772849       -21.0303
  38   1.0000      -0.765865       -20.8402
  39   1.0000      -0.750458       -20.4210
  40   1.0000      -0.749374       -20.3915
  41   1.0000      -0.737964       -20.0810
  42   1.0000      -0.726246       -19.7622
  43   1.0000      -0.709352       -19.3024
  44   1.0000      -0.696875       -18.9629
  45   1.0000      -0.656145       -17.8546
  46   1.0000      -0.645957       -17.5774
  47   1.0000      -0.623150       -16.9568
  48   1.0000      -0.613145       -16.6845
  49   1.0000      -0.608777       -16.5657
  50   1.0000      -0.608389       -16.5551
  51   1.0000      -0.607216       -16.5232
  52   1.0000      -0.590257       -16.0617
  53   1.0000      -0.579736       -15.7754
  54   1.0000      -0.560653       -15.2561
  55   1.0000      -0.540202       -14.6996
  56   1.0000      -0.534533       -14.5454
  57   1.0000      -0.506717       -13.7885
  58   1.0000      -0.503600       -13.7037
  59   1.0000      -0.479860       -13.0577
  60   1.0000      -0.478751       -13.0275
  61   1.0000      -0.474553       -12.9132
  62   1.0000      -0.470579       -12.8051
  63   1.0000      -0.462128       -12.5751
  64   1.0000      -0.457275       -12.4431
  65   1.0000      -0.455941       -12.4068
  66   1.0000      -0.436596       -11.8804
  67   1.0000      -0.434804       -11.8316
  68   1.0000      -0.430500       -11.7145
  69   1.0000      -0.428259       -11.6535
  70   1.0000      -0.425854       -11.5881
  71   1.0000      -0.423782       -11.5317
  72   1.0000      -0.422549       -11.4981
  73   1.0000      -0.421544       -11.4708
  74   1.0000      -0.411409       -11.1950
  75   1.0000      -0.397990       -10.8299
  76   1.0000      -0.397604       -10.8194
  77   1.0000      -0.383813       -10.4441
  78   1.0000      -0.381078       -10.3697
  79   1.0000      -0.377765       -10.2795
  80   1.0000      -0.374485       -10.1903
  81   1.0000      -0.364814        -9.9271
  82   1.0000      -0.361501        -9.8370
  83   1.0000      -0.359531        -9.7833
  84   1.0000      -0.355366        -9.6700
  85   1.0000      -0.353334        -9.6147
  86   1.0000      -0.350011        -9.5243
  87   1.0000      -0.348808        -9.4916
  88   1.0000      -0.339936        -9.2501
  89   1.0000      -0.332480        -9.0472
  90   1.0000      -0.331963        -9.0332
  91   1.0000      -0.330740        -8.9999
  92   1.0000      -0.327587        -8.9141
  93   1.0000      -0.323614        -8.8060
  94   1.0000      -0.321811        -8.7569
  95   1.0000      -0.305602        -8.3159
  96   1.0000      -0.278096        -7.5674
  97   1.0000      -0.271909        -7.3990
  98   1.0000      -0.267664        -7.2835
  99   1.0000      -0.266160        -7.2426
 100   1.0000      -0.258089        -7.0229
 101   1.0000      -0.257529        -7.0077
 102   1.0000      -0.235937        -6.4202
 103   1.0000      -0.208104        -5.6628
 104   1.0000      -0.169600        -4.6151
 105   0.0000      -0.063943        -1.7400
 106   0.0000      -0.027167        -0.7393
 107   0.0000      -0.009693        -0.2637
 108   0.0000      -0.008843        -0.2406
 109   0.0000       0.005599         0.1524

                 SPIN DOWN ORBITALS
  NO   OCC          E(Eh)            E(eV)
   0   1.0000     -10.215651      -277.9820
   1   1.0000     -10.214657      -277.9549
   2   1.0000     -10.211993      -277.8825
   3   1.0000     -10.209216      -277.8069
   4   1.0000     -10.199263      -277.5361
   5   1.0000     -10.197618      -277.4913
   6   1.0000     -10.196704      -277.4664
   7   1.0000     -10.196525      -277.4616
   8   1.0000     -10.195664      -277.4381
   9   1.0000     -10.195101      -277.4228
  10   1.0000     -10.194914      -277.4177
  11   1.0000     -10.194781      -277.4141
  12   1.0000     -10.194765      -277.4137
  13   1.0000     -10.194070      -277.3948
  14   1.0000     -10.193719      -277.3852
  15   1.0000     -10.193427      -277.3772
  16   1.0000     -10.189901      -277.2813
  17   1.0000     -10.189885      -277.2809
  18   1.0000     -10.188922      -277.2547
  19   1.0000     -10.188380      -277.2399
  20   1.0000     -10.187716      -277.2218
  21   1.0000     -10.186707      -277.1944
  22   1.0000     -10.186636      -277.1924
  23   1.0000     -10.185431      -277.1597
  24   1.0000     -10.184004      -277.1208
  25   1.0000     -10.181949      -277.0649
  26   1.0000     -10.181711      -277.0584
  27   1.0000     -10.181512      -277.0530
  28   1.0000     -10.177127      -276.9337
  29   1.0000     -10.175771      -276.8968
  30   1.0000      -0.869171       -23.6513
  31   1.0000      -0.862849       -23.4793
  32   1.0000      -0.861101       -23.4317
  33   1.0000      -0.814503       -22.1638
  34   1.0000      -0.796827       -21.6828
  35   1.0000      -0.794490       -21.6192
  36   1.0000      -0.781461       -21.2646
  37   1.0000      -0.771964       -21.0062
  38   1.0000      -0.763873       -20.7860
  39   1.0000      -0.750609       -20.4251
  40   1.0000      -0.749014       -20.3817
  41   1.0000      -0.735827       -20.0229
  42   1.0000      -0.723764       -19.6946
  43   1.0000      -0.708103       -19.2685
  44   1.0000      -0.694776       -18.9058
  45   1.0000      -0.653197       -17.7744
  46   1.0000      -0.644616       -17.5409
  47   1.0000      -0.621689       -16.9170
  48   1.0000      -0.609121       -16.5750
  49   1.0000      -0.608634       -16.5618
  50   1.0000      -0.607735       -16.5373
  51   1.0000      -0.606912       -16.5149
  52   1.0000      -0.589395       -16.0383
  53   1.0000      -0.578139       -15.7320
  54   1.0000      -0.557745       -15.1770
  55   1.0000      -0.539805       -14.6888
  56   1.0000      -0.533980       -14.5303
  57   1.0000      -0.503427       -13.6989
  58   1.0000      -0.502160       -13.6645
  59   1.0000      -0.479597       -13.0505
  60   1.0000      -0.477605       -12.9963
  61   1.0000      -0.473784       -12.8923
  62   1.0000      -0.469767       -12.7830
  63   1.0000      -0.458754       -12.4833
  64   1.0000      -0.457339       -12.4448
  65   1.0000      -0.455733       -12.4011
  66   1.0000      -0.436154       -11.8683
  67   1.0000      -0.434423       -11.8212
  68   1.0000      -0.428721       -11.6661
  69   1.0000      -0.427235       -11.6257
  70   1.0000      -0.424761       -11.5583
  71   1.0000      -0.423812       -11.5325
  72   1.0000      -0.422445       -11.4953
  73   1.0000      -0.419025       -11.4023
  74   1.0000      -0.410890       -11.1809
  75   1.0000      -0.396519       -10.7898
  76   1.0000      -0.390589       -10.6285
  77   1.0000      -0.382504       -10.4085
  78   1.0000      -0.379940       -10.3387
  79   1.0000      -0.375459       -10.2167
  80   1.0000      -0.371904       -10.1200
  81   1.0000      -0.363723        -9.8974
  82   1.0000      -0.361295        -9.8313
  83   1.0000      -0.359324        -9.7777
  84   1.0000      -0.354617        -9.6496
  85   1.0000      -0.350405        -9.5350
  86   1.0000      -0.350049        -9.5253
  87   1.0000      -0.348638        -9.4869
  88   1.0000      -0.337763        -9.1910
  89   1.0000      -0.331935        -9.0324
  90   1.0000      -0.330646        -8.9973
  91   1.0000      -0.328540        -8.9400
  92   1.0000      -0.327227        -8.9043
  93   1.0000      -0.322791        -8.7836
  94   1.0000      -0.321427        -8.7465
  95   1.0000      -0.303311        -8.2535
  96   1.0000      -0.274275        -7.4634
  97   1.0000      -0.267531        -7.2799
  98   1.0000      -0.265722        -7.2307
  99   1.0000      -0.258518        -7.0346
 100   1.0000      -0.258262        -7.0277
 101   1.0000      -0.256514        -6.9801
 102   1.0000      -0.234151        -6.3716
 103   1.0000      -0.200710        -5.4616
 104   0.0000      -0.084867        -2.3093
 105   0.0000      -0.055441        -1.5086
 106   0.0000      -0.025574        -0.6959
 107   0.0000      -0.010064        -0.2738
 108   0.0000      -0.007968        -0.2168

MULLIKEN ATOMIC CHARGES AND SPIN POPULATIONS
--------------------------------------------
   0 C :    0.139284    0.099603
   1 C :    0.281219   -0.066445
   2 C :    0.267974    0.032107
   3 C :   -0.178116    0.223301
   4 C :    0.067931   -0.169766
   5 C :   -0.024643    0.221328
   6 C :   -0.144604   -0.106819
   7 C :   -0.090161    0.232002
   8 C :    0.013675   -0.118037
   9 H :   -0.051873   -0.009210
  10 H :   -0.052951    0.004292
  11 C :   -0.101904    0.698347
  12 H :   -0.023149   -0.030436
  13 C :    0.034308   -0.047908
  14 H :    0.028907    0.031282
  15 H :    0.028955    0.031205
  16 C :   -0.041013    0.002208
  17 H :    0.012144    0.000507
  18 H :    0.012256    0.000499
  19 C :    0.005807   -0.000149
  20 H :    0.017219    0.000150
  21 H :    0.017247    0.000150
  22 C :    0.037115   -0.018522
  23 H :    0.033452    0.009858
  24 H :    0.033437    0.009870
  25 C :   -0.036185    0.000865
  26 H :    0.016873    0.000164
  27 H :    0.016855    0.000165
  28 C :   -0.024076    0.000028
  29 H :    0.005468    0.000055
  30 H :    0.005375    0.000055
  31 C :    0.003396   -0.000079
  32 H :    0.016996    0.000023
  33 H :    0.016968    0.000023
  34 C :    0.130897   -0.047845
  35 H :    0.014917   -0.000199
  36 H :    0.012192   -0.000005
  37 C :   -0.257832    0.010934
  38 C :    0.032179   -0.011284
  39 C :    0.041456    0.005924
  40 C :    0.025794   -0.011982
  41 C :    0.043561    0.005914
  42 C :    0.027503   -0.011258
  43 H :   -0.022753    0.000549
  44 H :   -0.028205   -0.000240
  45 H :   -0.040424    0.000487
  46 H :   -0.039423    0.000454
  47 H :   -0.028450   -0.000240
  48 C :   -0.261082   -0.023495
  49 C :    0.022463    0.026402
  50 C :    0.045127   -0.013928
  51 C :    0.025487    0.029036
  52 C :    0.040354   -0.013928
  53 C :    0.033539    0.026470
  54 H :   -0.023594   -0.001333
  55 H :   -0.029273    0.000554
  56 H :   -0.038703   -0.001098
  57 H :   -0.041298   -0.001161
  58 H :   -0.028621    0.000555
Sum of atomic charges         :   -0.0000000

LOEWDIN ATOMIC CHARGES AND SPIN POPULATIONS
-------------------------------------------
   0 C :   -0.022841    0.073041
   1 C :   -0.017267   -0.029804
   2 C :   -0.016240    0.016956
   3 C :   -0.039437    0.159667
   4 C :   -0.039521   -0.072098
   5 C :    0.009579    0.167082
   6 C :   -0.052954   -0.059108
   7 C :   -0.005698    0.171143
   8 C :   -0.008625   -0.064507
   9 H :    0.028240    0.000882
  10 H :    0.029716   -0.000458
  11 C :    0.010957    0.572103
  12 H :    0.021548    0.003451
  13 C :   -0.054459    0.005411
  14 H :    0.034335    0.024426
  15 H :    0.034318    0.024363
  16 C :   -0.046429    0.001176
  17 H :    0.025430    0.000316
  18 H :    0.025462    0.000312
  19 C :   -0.067785   -0.000026
  20 H :    0.025512    0.000248
  21 H :    0.025518    0.000249
  22 C :   -0.036175    0.002109
  23 H :    0.039091    0.007753
  24 H :    0.039057    0.007762
  25 C :   -0.043868    0.000157
  26 H :    0.024582    0.000051
  27 H :    0.024595    0.000051
  28 C :   -0.047297    0.000020
  29 H :    0.023754    0.000091
  30 H :    0.023725    0.000091
  31 C :   -0.067445   -0.000038
  32 H :    0.025210    0.000016
  33 H :    0.025201    0.000016
  34 C :   -0.022953   -0.034376
  35 H :    0.028633   -0.000109
  36 H :    0.027403   -0.000007
  37 C :   -0.053328    0.004990
  38 C :   -0.001180   -0.008684
  39 C :   -0.023346    0.003514
  40 C :   -0.022736   -0.009247
  41 C :   -0.023386    0.003508
  42 C :   -0.002325   -0.008676
  43 H :    0.028786   -0.000034
  44 H :    0.029170    0.000012
  45 H :    0.029984   -0.000011
  46 H :    0.029872   -0.000018
  47 H :    0.029127    0.000012
  48 C :   -0.053230   -0.010660
  49 C :   -0.003204    0.020371
  50 C :   -0.023755   -0.008205
  51 C :   -0.023608    0.022430
  52 C :   -0.023762   -0.008195
  53 C :   -0.001440    0.020415
  54 H :    0.028447    0.000088
  55 H :    0.028836   -0.000033
  56 H :    0.029394    0.000024
  57 H :    0.029735    0.000021
  58 H :    0.029076   -0.000034

  Mayer bond orders larger than 0.100000
B(  0-C ,  1-C ) :   1.7231 B(  0-C , 48-C ) :   0.9383 B(  1-C ,  3-C ) :   0.8792
B(  1-C , 48-C ) :  -0.1842 B(  2-C ,  6-C ) :   0.8796 B(  2-C , 34-C ) :   1.7635
B(  2-C , 37-C ) :  -0.1778 B(  3-C ,  4-C ) :   1.2801 B(  3-C ,  8-C ) :   1.3928
B(  4-C ,  5-C ) :   1.2940 B(  4-C , 11-C ) :   1.3813 B(  5-C ,  6-C ) :   1.4426
B(  5-C ,  9-H ) :   0.9200 B(  6-C ,  7-C ) :   1.3455 B(  7-C ,  8-C ) :   1.4307
B(  7-C , 22-C ) :   1.0970 B(  8-C , 10-H ) :   0.9217 B( 11-C , 12-H ) :   0.8995
B( 11-C , 13-C ) :   1.0830 B( 13-C , 14-H ) :   0.9120 B( 13-C , 15-H ) :   0.9120
B( 13-C , 16-C ) :   1.0717 B( 16-C , 17-H ) :   0.9441 B( 16-C , 18-H ) :   0.9440
B( 16-C , 19-C ) :   1.1060 B( 19-C , 20-H ) :   0.9653 B( 19-C , 21-H ) :   0.9653
B( 19-C , 35-H ) :   0.9611 B( 22-C , 23-H ) :   0.8961 B( 22-C , 24-H ) :   0.8961
B( 22-C , 25-C ) :   1.1027 B( 25-C , 26-H ) :   0.9295 B( 25-C , 27-H ) :   0.9295
B( 25-C , 28-C ) :   1.0740 B( 28-C , 29-H ) :   0.9415 B( 28-C , 30-H ) :   0.9415
B( 28-C , 31-C ) :   1.1043 B( 31-C , 32-H ) :   0.9664 B( 31-C , 33-H ) :   0.9664
B( 31-C , 36-H ) :   0.9625 B( 34-C , 37-C ) :   0.9359 B( 37-C , 38-C ) :   1.4403
B( 37-C , 42-C ) :   1.4374 B( 38-C , 39-C ) :   1.4728 B( 38-C , 45-H ) :   0.9403
B( 39-C , 40-C ) :   1.4449 B( 39-C , 47-H ) :   0.9377 B( 40-C , 41-C ) :   1.4431
B( 40-C , 43-H ) :   0.9442 B( 41-C , 42-C ) :   1.4729 B( 41-C , 44-H ) :   0.9377
B( 42-C , 46-H ) :   0.9406 B( 48-C , 49-C ) :   1.4366 B( 48-C , 53-C ) :   1.4357
B( 49-C , 50-C ) :   1.4735 B( 49-C , 56-H ) :   0.9410 B( 50-C , 51-C ) :   1.4410
B( 50-C , 58-H ) :   0.9378 B( 51-C , 52-C ) :   1.4439 B( 51-C , 54-H ) :   0.9440
B( 52-C , 53-C ) :   1.4747 B( 52-C , 55-H ) :   0.9378 B( 53-C , 57-H ) :   0.9403

FINAL SINGLE POINT ENERGY     -1159.835440099764

DIPOLE MOMENT
-------------
                                X             Y             Z
Electronic contribution:     -0.52397       2.19608      -0.00016
Nuclear contribution   :      0.65582      -2.17487      -0.00019
                        -----------------------------------------
Total Dipole Moment    :      0.13185       0.02121      -0.00035
                        -----------------------------------------
Magnitude (a.u.)       :      0.13355
Magnitude (Debye)      :      0.33945

Rotational constants in cm-1:     0.005983     0.001991     0.001497
Rotational constants in MHz :   179.375312    59.697017    44.878219

                             ****ORCA TERMINATED NORMALLY****
TOTAL RUN TIME: 0 days 0 hours 15 minutes 28 seconds 561 msec
