                         Program Version 5.0.4 -  RELEASE  -
|  1> ! B3LYP EPR-II OPT
|  2> %pal nprocs 16 end
|  3> *XYZFile 0 2 model.xyz
|  4>
|  5>                          ****END OF INPUT****
 Total Charge           Charge          ....    0
 Multiplicity           Mult            ....    2
 Number of Electrons    NEL             ....  209
FINAL SINGLE POINT ENERGY     -1159.916608712093
FINAL SINGLE POINT ENERGY     -1159.917899337567
FINAL SINGLE POINT ENERGY     -1159.917955610897
FINAL SINGLE POINT ENERGY     -1159.917970527012
FINAL SINGLE POINT ENERGY     -1159.917974187324
                    ***********************HURRAY********************

CARTESIAN COORDINATES (ANGSTROEM)
---------------------------------
  C     -4.063411   -0.116031    0.000381
  C     -2.838031   -0.045851    0.001359
  C      2.847796    0.031502    0.002314
  C     -1.415755    0.009274    0.001097
  C     -0.713197    1.275735   -0.002065
  C      0.712165    1.217650   -0.001116
  C      1.416713    0.007055    0.001976
  C      0.711436   -1.243044    0.004484
  C     -0.686037   -1.199693    0.004134
  H      1.279389    2.141817   -0.003061
  H     -1.251249   -2.124614    0.006214
  C     -1.407695    2.509167   -0.006355
  H     -2.493810    2.470704   -0.007173
  C     -0.753515    3.865509   -0.009553
  H     -0.099756    3.970330    0.871050
  H     -0.085896    3.959684   -0.880810
  C     -1.764099    5.027728   -0.024790
  H     -2.407067    4.932102   -0.909065
  H     -2.421827    4.942656    0.849684
  C     -1.086359    6.408106   -0.027337
  H     -0.444946    6.530732   -0.907455
  H     -0.459509    6.541123    0.861725
  C      1.493589   -2.545562    0.007443
  H      2.163440   -2.545935   -0.863660
  H      2.161560   -2.543208    0.879998
  C      0.669127   -3.842482    0.008517
  H      0.012619   -3.867388    0.888486
  H      0.014369   -3.869833   -0.872689
  C      1.555057   -5.101488    0.011166
  H      2.214102   -5.082052   -0.867050
  H      2.212055   -5.079807    0.890861
  C      0.741313   -6.407351    0.011889
  H      0.098485   -6.470913   -0.873353
  H      0.095991   -6.468371    0.895491
  C      4.073016    0.052379    0.003430
  H     -1.826669    7.214571   -0.038164
  H      1.395680   -7.285258    0.014067
  C      5.504808    0.085475    0.003548
  C      6.195098    1.322267    0.002863
  C      7.594370    1.350944    0.002826
  C      8.329483    0.153179    0.003482
  C      7.652617   -1.078498    0.004192
  C      6.253539   -1.116733    0.004239
  H      9.415843    0.179317    0.003437
  H      8.215781   -2.008107    0.004693
  H      5.624765    2.246411    0.002350
  H      5.728701   -2.067423    0.004764
  H      8.112575    2.306356    0.002279
  C     -5.490595   -0.212094    0.000500
  C     -6.294857    0.954567   -0.000327
  C     -7.690441    0.851753   -0.000037
  C     -8.310216   -0.409774    0.001060
  C     -7.520554   -1.572552    0.001857
  C     -6.124408   -1.479767    0.001574
  H     -9.394221   -0.485887    0.001299
  H     -7.994313   -2.550796    0.002709
  H     -5.815023    1.928756   -0.001133
  H     -5.512229   -2.376732    0.002199
  H     -8.295757    1.754502   -0.000643

 Multiplicity           Mult            ....    2
 Number of Electrons    NEL             ....  209
 Basis Dimension        Dim             ....  713

ORBITAL ENERGIES
----------------
                 SPIN UP ORBITALS
  NO   OCC          E(Eh)            E(eV)
   0   1.0000     -10.228148      -278.3221
   1   1.0000     -10.226744      -278.2839
   2   1.0000     -10.222715      -278.1742
   3   1.0000     -10.220762      -278.1211
   4   1.0000     -10.210169      -277.8328
   5   1.0000     -10.207263      -277.7538
   6   1.0000     -10.205182      -277.6971
   7   1.0000     -10.205055      -277.6937
   8   1.0000     -10.204874      -277.6888
   9   1.0000     -10.204256      -277.6719
  10   1.0000     -10.204174      -277.6697
  11   1.0000     -10.204061      -277.6666
  12   1.0000     -10.203908      -277.6625
  13   1.0000     -10.203758      -277.6584
  14   1.0000     -10.202916      -277.6355
  15   1.0000     -10.202732      -277.6304
  16   1.0000     -10.201813      -277.6054
  17   1.0000     -10.201194      -277.5886
  18   1.0000     -10.199811      -277.5510
  19   1.0000     -10.199735      -277.5489
  20   1.0000     -10.198609      -277.5183
  21   1.0000     -10.196683      -277.4658
  22   1.0000     -10.194925      -277.4180
  23   1.0000     -10.187959      -277.2285
  24   1.0000     -10.186055      -277.1767
  25   1.0000     -10.183480      -277.1066
  26   1.0000     -10.180927      -277.0371
  27   1.0000     -10.180555      -277.0270
  28   1.0000     -10.172726      -276.8139
  29   1.0000     -10.170829      -276.7623
  30   1.0000      -0.870081       -23.6761
  31   1.0000      -0.860409       -23.4129
  32   1.0000      -0.859267       -23.3819
  33   1.0000      -0.816675       -22.2228
  34   1.0000      -0.797046       -21.6887
  35   1.0000      -0.793238       -21.5851
  36   1.0000      -0.780803       -21.2467
  37   1.0000      -0.771229       -20.9862
  38   1.0000      -0.763925       -20.7874
  39   1.0000      -0.750051       -20.4099
  40   1.0000      -0.749037       -20.3823
  41   1.0000      -0.736523       -20.0418
  42   1.0000      -0.724982       -19.7278
  43   1.0000      -0.709090       -19.2953
  44   1.0000      -0.695417       -18.9233
  45   1.0000      -0.655210       -17.8292
  46   1.0000      -0.645518       -17.5654
  47   1.0000      -0.623331       -16.9617
  48   1.0000      -0.613210       -16.6863
  49   1.0000      -0.609507       -16.5855
  50   1.0000      -0.608847       -16.5676
  51   1.0000      -0.608180       -16.5494
  52   1.0000      -0.590677       -16.0731
  53   1.0000      -0.580402       -15.7935
  54   1.0000      -0.561440       -15.2776
  55   1.0000      -0.540978       -14.7208
  56   1.0000      -0.535309       -14.5665
  57   1.0000      -0.506275       -13.7765
  58   1.0000      -0.503903       -13.7119
  59   1.0000      -0.482387       -13.1264
  60   1.0000      -0.479446       -13.0464
  61   1.0000      -0.474795       -12.9198
  62   1.0000      -0.470701       -12.8084
  63   1.0000      -0.462959       -12.5977
  64   1.0000      -0.455190       -12.3864
  65   1.0000      -0.453929       -12.3520
  66   1.0000      -0.437883       -11.9154
  67   1.0000      -0.436389       -11.8747
  68   1.0000      -0.430130       -11.7044
  69   1.0000      -0.427451       -11.6315
  70   1.0000      -0.425579       -11.5806
  71   1.0000      -0.424703       -11.5568
  72   1.0000      -0.424323       -11.5464
  73   1.0000      -0.422084       -11.4855
  74   1.0000      -0.411027       -11.1846
  75   1.0000      -0.398656       -10.8480
  76   1.0000      -0.396149       -10.7798
  77   1.0000      -0.383440       -10.4339
  78   1.0000      -0.379273       -10.3205
  79   1.0000      -0.377356       -10.2684
  80   1.0000      -0.373503       -10.1635
  81   1.0000      -0.363954        -9.9037
  82   1.0000      -0.362786        -9.8719
  83   1.0000      -0.361285        -9.8311
  84   1.0000      -0.355117        -9.6632
  85   1.0000      -0.354617        -9.6496
  86   1.0000      -0.352249        -9.5852
  87   1.0000      -0.351074        -9.5532
  88   1.0000      -0.337589        -9.1863
  89   1.0000      -0.332989        -9.0611
  90   1.0000      -0.331724        -9.0267
  91   1.0000      -0.331678        -9.0254
  92   1.0000      -0.326548        -8.8858
  93   1.0000      -0.322970        -8.7884
  94   1.0000      -0.321181        -8.7398
  95   1.0000      -0.304945        -8.2980
  96   1.0000      -0.277736        -7.5576
  97   1.0000      -0.271717        -7.3938
  98   1.0000      -0.268043        -7.2938
  99   1.0000      -0.266662        -7.2562
 100   1.0000      -0.257960        -7.0194
 101   1.0000      -0.257456        -7.0057
 102   1.0000      -0.236045        -6.4231
 103   1.0000      -0.208558        -5.6752
 104   1.0000      -0.170080        -4.6281
 105   0.0000      -0.065807        -1.7907
 106   0.0000      -0.030438        -0.8282
 107   0.0000      -0.014964        -0.4072
 108   0.0000      -0.014204        -0.3865
 109   0.0000       0.001145         0.0312

                 SPIN DOWN ORBITALS
  NO   OCC          E(Eh)            E(eV)
   0   1.0000     -10.227980      -278.3175
   1   1.0000     -10.227102      -278.2936
   2   1.0000     -10.222377      -278.1650
   3   1.0000     -10.219346      -278.0826
   4   1.0000     -10.209723      -277.8207
   5   1.0000     -10.206780      -277.7406
   6   1.0000     -10.205317      -277.7008
   7   1.0000     -10.205190      -277.6974
   8   1.0000     -10.205035      -277.6931
   9   1.0000     -10.204200      -277.6704
  10   1.0000     -10.204032      -277.6658
  11   1.0000     -10.203855      -277.6610
  12   1.0000     -10.203635      -277.6550
  13   1.0000     -10.203406      -277.6488
  14   1.0000     -10.203024      -277.6384
  15   1.0000     -10.202764      -277.6313
  16   1.0000     -10.202049      -277.6119
  17   1.0000     -10.200781      -277.5774
  18   1.0000     -10.199676      -277.5473
  19   1.0000     -10.198595      -277.5179
  20   1.0000     -10.196692      -277.4661
  21   1.0000     -10.196513      -277.4612
  22   1.0000     -10.188604      -277.2460
  23   1.0000     -10.186869      -277.1988
  24   1.0000     -10.186248      -277.1819
  25   1.0000     -10.183444      -277.1056
  26   1.0000     -10.180928      -277.0371
  27   1.0000     -10.180553      -277.0269
  28   1.0000     -10.172735      -276.8142
  29   1.0000     -10.170830      -276.7624
  30   1.0000      -0.866869       -23.5887
  31   1.0000      -0.860480       -23.4149
  32   1.0000      -0.858795       -23.3690
  33   1.0000      -0.812006       -22.0958
  34   1.0000      -0.795102       -21.6358
  35   1.0000      -0.791425       -21.5358
  36   1.0000      -0.780435       -21.2367
  37   1.0000      -0.770413       -20.9640
  38   1.0000      -0.761923       -20.7330
  39   1.0000      -0.750205       -20.4141
  40   1.0000      -0.748680       -20.3726
  41   1.0000      -0.734731       -19.9931
  42   1.0000      -0.722199       -19.6520
  43   1.0000      -0.707887       -19.2626
  44   1.0000      -0.693348       -18.8670
  45   1.0000      -0.652186       -17.7469
  46   1.0000      -0.644194       -17.5294
  47   1.0000      -0.621927       -16.9235
  48   1.0000      -0.609599       -16.5880
  49   1.0000      -0.609115       -16.5749
  50   1.0000      -0.608238       -16.5510
  51   1.0000      -0.607613       -16.5340
  52   1.0000      -0.589821       -16.0499
  53   1.0000      -0.578770       -15.7491
  54   1.0000      -0.558476       -15.1969
  55   1.0000      -0.540585       -14.7101
  56   1.0000      -0.534770       -14.5518
  57   1.0000      -0.503383       -13.6978
  58   1.0000      -0.502109       -13.6631
  59   1.0000      -0.482225       -13.1220
  60   1.0000      -0.478590       -13.0231
  61   1.0000      -0.473507       -12.8848
  62   1.0000      -0.469892       -12.7864
  63   1.0000      -0.459690       -12.5088
  64   1.0000      -0.455257       -12.3882
  65   1.0000      -0.453722       -12.3464
  66   1.0000      -0.437670       -11.9096
  67   1.0000      -0.436009       -11.8644
  68   1.0000      -0.429183       -11.6787
  69   1.0000      -0.425609       -11.5814
  70   1.0000      -0.425229       -11.5711
  71   1.0000      -0.424325       -11.5465
  72   1.0000      -0.423464       -11.5230
  73   1.0000      -0.419712       -11.4209
  74   1.0000      -0.410599       -11.1730
  75   1.0000      -0.395004       -10.7486
  76   1.0000      -0.391429       -10.6513
  77   1.0000      -0.381677       -10.3860
  78   1.0000      -0.378381       -10.2963
  79   1.0000      -0.375004       -10.2044
  80   1.0000      -0.371213       -10.1012
  81   1.0000      -0.362850        -9.8736
  82   1.0000      -0.362723        -9.8702
  83   1.0000      -0.361030        -9.8241
  84   1.0000      -0.354342        -9.6421
  85   1.0000      -0.352270        -9.5858
  86   1.0000      -0.351696        -9.5701
  87   1.0000      -0.350902        -9.5485
  88   1.0000      -0.335279        -9.1234
  89   1.0000      -0.331350        -9.0165
  90   1.0000      -0.331159        -9.0113
  91   1.0000      -0.329927        -8.9778
  92   1.0000      -0.326143        -8.8748
  93   1.0000      -0.322509        -8.7759
  94   1.0000      -0.320478        -8.7207
  95   1.0000      -0.302650        -8.2355
  96   1.0000      -0.273861        -7.4521
  97   1.0000      -0.267907        -7.2901
  98   1.0000      -0.266230        -7.2445
  99   1.0000      -0.258390        -7.0311
 100   1.0000      -0.257954        -7.0193
 101   1.0000      -0.256445        -6.9782
 102   1.0000      -0.234286        -6.3753
 103   1.0000      -0.201254        -5.4764
 104   0.0000      -0.085578        -2.3287
 105   0.0000      -0.057520        -1.5652
 106   0.0000      -0.028872        -0.7857
 107   0.0000      -0.015325        -0.4170
 108   0.0000      -0.013371        -0.3639

MULLIKEN ATOMIC CHARGES AND SPIN POPULATIONS
--------------------------------------------
   0 C :   -0.304457    0.095619
   1 C :   -0.414608   -0.064900
   2 C :   -0.415923    0.029003
   3 C :    0.497249    0.203833
   4 C :    0.376055   -0.138759
   5 C :   -0.447337    0.212956
   6 C :    0.555786   -0.091808
   7 C :    0.237127    0.219424
   8 C :   -0.388273   -0.110322
   9 H :    0.130756   -0.011460
  10 H :    0.132388    0.005146
  11 C :   -0.265689    0.694428
  12 H :    0.125931   -0.036456
  13 C :   -0.272443   -0.044735
  14 H :    0.152390    0.029389
  15 H :    0.151839    0.029015
  16 C :   -0.288921    0.002151
  17 H :    0.154870   -0.000148
  18 H :    0.154524   -0.000141
  19 C :   -0.510058   -0.000782
  20 H :    0.159284    0.000165
  21 H :    0.159263    0.000165
  22 C :   -0.357086   -0.016476
  23 H :    0.151985    0.010079
  24 H :    0.152053    0.010104
  25 C :   -0.271865    0.000900
  26 H :    0.141810    0.000172
  27 H :    0.141904    0.000173
  28 C :   -0.262667   -0.000235
  29 H :    0.144120    0.000042
  30 H :    0.144144    0.000041
  31 C :   -0.510708   -0.000083
  32 H :    0.159723    0.000022
  33 H :    0.159706    0.000022
  34 C :   -0.291442   -0.044510
  35 H :    0.145829   -0.000165
  36 H :    0.143602   -0.000005
  37 C :    0.584156    0.009429
  38 C :   -0.281144   -0.011068
  39 C :   -0.097888    0.005836
  40 C :   -0.122084   -0.012068
  41 C :   -0.102462    0.005830
  42 C :   -0.271475   -0.011109
  43 H :    0.106660    0.000681
  44 H :    0.105765   -0.000290
  45 H :    0.119626    0.000588
  46 H :    0.119138    0.000588
  47 H :    0.105768   -0.000289
  48 C :    0.592009   -0.019542
  49 C :   -0.280325    0.025163
  50 C :   -0.099946   -0.013454
  51 C :   -0.124396    0.028799
  52 C :   -0.100130   -0.013457
  53 C :   -0.276613    0.025483
  54 H :    0.106309   -0.001629
  55 H :    0.105451    0.000659
  56 H :    0.116367   -0.001313
  57 H :    0.119130   -0.001363
  58 H :    0.105226    0.000662
Sum of atomic charges         :   -0.0000000

LOEWDIN ATOMIC CHARGES AND SPIN POPULATIONS
-------------------------------------------
   0 C :   -0.037083    0.072052
   1 C :   -0.030030   -0.029441
   2 C :   -0.028091    0.017094
   3 C :   -0.054475    0.160175
   4 C :   -0.066703   -0.072465
   5 C :    0.008314    0.169217
   6 C :   -0.067953   -0.059457
   7 C :   -0.040843    0.172732
   8 C :   -0.010144   -0.065365
   9 H :    0.059125    0.001215
  10 H :    0.060589   -0.000585
  11 C :   -0.008773    0.573375
  12 H :    0.056820    0.004576
  13 C :   -0.082729    0.003451
  14 H :    0.054120    0.024065
  15 H :    0.053936    0.023728
  16 C :   -0.087953    0.000948
  17 H :    0.042120   -0.000044
  18 H :    0.042044   -0.000045
  19 C :   -0.078113   -0.000162
  20 H :    0.034277    0.000199
  21 H :    0.034278    0.000200
  22 C :   -0.045017    0.001593
  23 H :    0.059127    0.008017
  24 H :    0.059133    0.008033
  25 C :   -0.079687    0.000187
  26 H :    0.044623    0.000007
  27 H :    0.044655    0.000007
  28 C :   -0.090551   -0.000006
  29 H :    0.040760    0.000057
  30 H :    0.040762    0.000057
  31 C :   -0.078855   -0.000034
  32 H :    0.034064    0.000014
  33 H :    0.034064    0.000014
  34 C :   -0.035298   -0.034559
  35 H :    0.032254   -0.000083
  36 H :    0.031505   -0.000006
  37 C :   -0.071824    0.005094
  38 C :   -0.015389   -0.008843
  39 C :   -0.042603    0.003603
  40 C :   -0.042739   -0.009402
  41 C :   -0.042933    0.003600
  42 C :   -0.015828   -0.008835
  43 H :    0.049067   -0.000064
  44 H :    0.050214    0.000024
  45 H :    0.056035   -0.000029
  46 H :    0.055744   -0.000030
  47 H :    0.050290    0.000024
  48 C :   -0.071611   -0.010712
  49 C :   -0.016912    0.020269
  50 C :   -0.043257   -0.008274
  51 C :   -0.043770    0.022434
  52 C :   -0.043011   -0.008251
  53 C :   -0.015792    0.020448
  54 H :    0.048863    0.000159
  55 H :    0.050179   -0.000059
  56 H :    0.055004    0.000071
  57 H :    0.055906    0.000072
  58 H :    0.050099   -0.000060

  Mayer bond orders larger than 0.100000
B(  0-C ,  1-C ) :   2.4313 B(  0-C , 48-C ) :   1.0234 B(  1-C ,  3-C ) :   0.7979
B(  2-C ,  6-C ) :   0.7630 B(  2-C , 34-C ) :   2.4875 B(  3-C ,  4-C ) :   1.2753
B(  3-C ,  7-C ) :   0.1052 B(  3-C ,  8-C ) :   1.4364 B(  4-C ,  5-C ) :   1.2264
B(  4-C ,  6-C ) :   0.1148 B(  4-C , 11-C ) :   1.2930 B(  5-C ,  6-C ) :   1.4918
B(  5-C ,  9-H ) :   0.9697 B(  6-C ,  7-C ) :   1.3342 B(  6-C ,  8-C ) :   0.1110
B(  7-C ,  8-C ) :   1.4141 B(  7-C , 22-C ) :   0.9622 B(  8-C , 10-H ) :   0.9711
B( 11-C , 12-H ) :   0.9827 B( 11-C , 13-C ) :   0.9982 B( 13-C , 14-H ) :   0.9563
B( 13-C , 15-H ) :   0.9560 B( 13-C , 16-C ) :   0.9820 B( 16-C , 17-H ) :   0.9725
B( 16-C , 18-H ) :   0.9722 B( 16-C , 19-C ) :   0.9617 B( 19-C , 20-H ) :   0.9729
B( 19-C , 21-H ) :   0.9730 B( 19-C , 35-H ) :   0.9675 B( 22-C , 23-H ) :   0.9556
B( 22-C , 24-H ) :   0.9558 B( 22-C , 25-C ) :   1.0235 B( 25-C , 26-H ) :   0.9615
B( 25-C , 27-H ) :   0.9616 B( 25-C , 28-C ) :   0.9859 B( 28-C , 29-H ) :   0.9719
B( 28-C , 30-H ) :   0.9719 B( 28-C , 31-C ) :   0.9545 B( 31-C , 32-H ) :   0.9732
B( 31-C , 33-H ) :   0.9732 B( 31-C , 36-H ) :   0.9674 B( 34-C , 37-C ) :   1.0107
B( 37-C , 38-C ) :   1.3912 B( 37-C , 42-C ) :   1.3852 B( 38-C , 39-C ) :   1.4769
B( 38-C , 45-H ) :   0.9820 B( 39-C , 40-C ) :   1.4523 B( 39-C , 47-H ) :   0.9760
B( 40-C , 41-C ) :   1.4552 B( 40-C , 43-H ) :   0.9658 B( 41-C , 42-C ) :   1.4765
B( 41-C , 44-H ) :   0.9770 B( 42-C , 46-H ) :   0.9799 B( 48-C , 49-C ) :   1.3834
B( 48-C , 53-C ) :   1.3814 B( 49-C , 50-C ) :   1.4783 B( 49-C , 51-C ) :   0.1009
B( 49-C , 56-H ) :   0.9811 B( 50-C , 51-C ) :   1.4530 B( 50-C , 58-H ) :   0.9769
B( 51-C , 52-C ) :   1.4512 B( 51-C , 54-H ) :   0.9657 B( 52-C , 53-C ) :   1.4782
B( 52-C , 55-H ) :   0.9762 B( 53-C , 57-H ) :   0.9822

FINAL SINGLE POINT ENERGY     -1159.917975492334

DIPOLE MOMENT
-------------
                                X             Y             Z
Electronic contribution:     -0.41907       2.19674       0.04734
Nuclear contribution   :      0.55407      -2.16967      -0.04797
                        -----------------------------------------
Total Dipole Moment    :      0.13500       0.02707      -0.00063
                        -----------------------------------------
Magnitude (a.u.)       :      0.13769
Magnitude (Debye)      :      0.34997

Rotational constants in cm-1:     0.005953     0.001983     0.001491
Rotational constants in MHz :   178.474253    59.455247    44.684328

                             ****ORCA TERMINATED NORMALLY****
TOTAL RUN TIME: 0 days 0 hours 18 minutes 59 seconds 84 msec
