                         Program Version 5.0.4 -  RELEASE  -
|  1> ! B3LYP cc-pVDZ OPT
|  2> %pal nprocs 16 end
|  3> *XYZFile 0 2 model.xyz
|  4>
|  5>                          ****END OF INPUT****
 Total Charge           Charge          ....    0
 Multiplicity           Mult            ....    2
 Number of Electrons    NEL             ....  209
FINAL SINGLE POINT ENERGY     -1159.836514529075
                    ***********************HURRAY********************

CARTESIAN COORDINATES (ANGSTROEM)
---------------------------------
  C     -4.058802   -0.113743   -0.000638
  C     -2.837082   -0.037012    0.000596
  C      2.839442    0.025200    0.001408
  C     -1.417736    0.016708    0.000440
  C     -0.712104    1.278664   -0.002989
  C      0.709696    1.212126   -0.002239
  C      1.411278    0.003685    0.001144
  C      0.702218   -1.241143    0.004103
  C     -0.691439   -1.190738    0.003775
  H      1.285373    2.137947   -0.004501
  H     -1.264623   -2.117695    0.006128
  C     -1.396840    2.512550   -0.007144
  H     -2.489467    2.477294   -0.007689
  C     -0.740230    3.860835   -0.010830
  H     -0.072333    3.960091    0.869813
  H     -0.065361    3.951926   -0.886973
  C     -1.737840    5.026460   -0.020337
  H     -2.392938    4.932226   -0.905663
  H     -2.400382    4.940457    0.860286
  C     -1.059463    6.397701   -0.023862
  H     -0.415255    6.523918   -0.911233
  H     -0.422808    6.532237    0.867729
  C      1.476454   -2.542640    0.007445
  H      2.155156   -2.542783   -0.866135
  H      2.153820   -2.539173    0.882063
  C      0.658373   -3.836660    0.009440
  H     -0.005452   -3.860137    0.893237
  H     -0.004159   -3.863568   -0.875234
  C      1.539817   -5.091645    0.012545
  H      2.206693   -5.069883   -0.869403
  H      2.205180   -5.066600    0.895549
  C      0.734263   -6.393345    0.014279
  H      0.085293   -6.463700   -0.875739
  H      0.083360   -6.460128    0.903160
  C      4.061345    0.051651    0.002529
  H     -1.799752    7.213867   -0.030836
  H      1.393369   -7.276658    0.016770
  C      5.489028    0.088476    0.002584
  C      6.175982    1.322261    0.000834
  C      7.570150    1.354026    0.000776
  C      8.304603    0.162682    0.002478
  C      7.633940   -1.065777    0.004258
  C      6.240083   -1.107376    0.004332
  H      9.396741    0.191519    0.002419
  H      8.201953   -1.999231    0.005592
  H      5.600937    2.250144   -0.000494
  H      5.714974   -2.064429    0.005707
  H      8.088274    2.316067   -0.000612
  C     -5.481375   -0.216989   -0.000762
  C     -6.291611    0.940467   -0.002939
  C     -7.681526    0.829803   -0.002957
  C     -8.291194   -0.430164   -0.000846
  C     -7.498560   -1.583884    0.001279
  C     -6.108007   -1.483564    0.001311
  H     -9.380578   -0.512791   -0.000859
  H     -7.968599   -2.570341    0.002925
  H     -5.815417    1.922769   -0.004555
  H     -5.488004   -2.382040    0.002961
  H     -8.294824    1.734181   -0.004623

 Multiplicity           Mult            ....    2
 Number of Electrons    NEL             ....  209
 Basis Dimension        Dim             ....  565

ORBITAL ENERGIES
----------------
                 SPIN UP ORBITALS
  NO   OCC          E(Eh)            E(eV)
   0   1.0000     -10.215979      -277.9909
   1   1.0000     -10.214494      -277.9505
   2   1.0000     -10.212675      -277.9010
   3   1.0000     -10.210542      -277.8430
   4   1.0000     -10.200999      -277.5833
   5   1.0000     -10.196948      -277.4731
   6   1.0000     -10.196575      -277.4629
   7   1.0000     -10.196446      -277.4594
   8   1.0000     -10.195536      -277.4346
   9   1.0000     -10.195476      -277.4330
  10   1.0000     -10.195289      -277.4279
  11   1.0000     -10.195032      -277.4209
  12   1.0000     -10.194794      -277.4145
  13   1.0000     -10.194255      -277.3998
  14   1.0000     -10.193619      -277.3825
  15   1.0000     -10.193438      -277.3775
  16   1.0000     -10.193154      -277.3698
  17   1.0000     -10.191305      -277.3195
  18   1.0000     -10.188787      -277.2510
  19   1.0000     -10.188367      -277.2396
  20   1.0000     -10.187951      -277.2282
  21   1.0000     -10.187632      -277.2196
  22   1.0000     -10.186787      -277.1966
  23   1.0000     -10.186152      -277.1793
  24   1.0000     -10.185619      -277.1648
  25   1.0000     -10.183782      -277.1148
  26   1.0000     -10.181673      -277.0574
  27   1.0000     -10.181250      -277.0459
  28   1.0000     -10.177007      -276.9304
  29   1.0000     -10.175542      -276.8906
  30   1.0000      -0.872375       -23.7385
  31   1.0000      -0.862723       -23.4759
  32   1.0000      -0.861542       -23.4437
  33   1.0000      -0.819142       -22.2900
  34   1.0000      -0.798610       -21.7313
  35   1.0000      -0.796132       -21.6638
  36   1.0000      -0.781782       -21.2734
  37   1.0000      -0.772772       -21.0282
  38   1.0000      -0.765774       -20.8378
  39   1.0000      -0.750441       -20.4205
  40   1.0000      -0.749366       -20.3913
  41   1.0000      -0.737888       -20.0789
  42   1.0000      -0.726100       -19.7582
  43   1.0000      -0.709295       -19.3009
  44   1.0000      -0.696734       -18.9591
  45   1.0000      -0.656044       -17.8519
  46   1.0000      -0.645907       -17.5760
  47   1.0000      -0.623107       -16.9556
  48   1.0000      -0.613069       -16.6824
  49   1.0000      -0.608762       -16.5653
  50   1.0000      -0.608368       -16.5545
  51   1.0000      -0.607215       -16.5232
  52   1.0000      -0.590182       -16.0597
  53   1.0000      -0.579553       -15.7704
  54   1.0000      -0.560588       -15.2544
  55   1.0000      -0.540187       -14.6992
  56   1.0000      -0.534504       -14.5446
  57   1.0000      -0.506643       -13.7864
  58   1.0000      -0.503572       -13.7029
  59   1.0000      -0.479840       -13.0571
  60   1.0000      -0.478726       -13.0268
  61   1.0000      -0.474536       -12.9128
  62   1.0000      -0.470297       -12.7974
  63   1.0000      -0.461950       -12.5703
  64   1.0000      -0.457235       -12.4420
  65   1.0000      -0.455912       -12.4060
  66   1.0000      -0.436556       -11.8793
  67   1.0000      -0.434759       -11.8304
  68   1.0000      -0.430443       -11.7129
  69   1.0000      -0.428205       -11.6520
  70   1.0000      -0.425619       -11.5817
  71   1.0000      -0.423755       -11.5310
  72   1.0000      -0.422537       -11.4978
  73   1.0000      -0.421406       -11.4670
  74   1.0000      -0.411193       -11.1891
  75   1.0000      -0.397962       -10.8291
  76   1.0000      -0.397443       -10.8150
  77   1.0000      -0.383830       -10.4445
  78   1.0000      -0.381149       -10.3716
  79   1.0000      -0.377592       -10.2748
  80   1.0000      -0.374525       -10.1913
  81   1.0000      -0.364650        -9.9226
  82   1.0000      -0.361437        -9.8352
  83   1.0000      -0.359507        -9.7827
  84   1.0000      -0.355271        -9.6674
  85   1.0000      -0.353249        -9.6124
  86   1.0000      -0.350012        -9.5243
  87   1.0000      -0.348813        -9.4917
  88   1.0000      -0.339738        -9.2447
  89   1.0000      -0.332263        -9.0413
  90   1.0000      -0.331939        -9.0325
  91   1.0000      -0.330681        -8.9983
  92   1.0000      -0.327294        -8.9061
  93   1.0000      -0.323466        -8.8019
  94   1.0000      -0.321624        -8.7518
  95   1.0000      -0.305626        -8.3165
  96   1.0000      -0.278143        -7.5687
  97   1.0000      -0.271914        -7.3991
  98   1.0000      -0.267734        -7.2854
  99   1.0000      -0.266202        -7.2437
 100   1.0000      -0.258117        -7.0237
 101   1.0000      -0.257568        -7.0088
 102   1.0000      -0.235967        -6.4210
 103   1.0000      -0.208141        -5.6638
 104   1.0000      -0.169524        -4.6130
 105   0.0000      -0.063780        -1.7355
 106   0.0000      -0.026999        -0.7347
 107   0.0000      -0.009808        -0.2669
 108   0.0000      -0.008979        -0.2443
 109   0.0000       0.005699         0.1551

                 SPIN DOWN ORBITALS
  NO   OCC          E(Eh)            E(eV)
   0   1.0000     -10.215814      -277.9864
   1   1.0000     -10.214852      -277.9602
   2   1.0000     -10.212147      -277.8866
   3   1.0000     -10.209312      -277.8095
   4   1.0000     -10.199406      -277.5399
   5   1.0000     -10.197616      -277.4912
   6   1.0000     -10.196738      -277.4674
   7   1.0000     -10.196609      -277.4638
   8   1.0000     -10.195579      -277.4358
   9   1.0000     -10.195155      -277.4243
  10   1.0000     -10.194959      -277.4189
  11   1.0000     -10.194912      -277.4177
  12   1.0000     -10.194781      -277.4141
  13   1.0000     -10.194065      -277.3946
  14   1.0000     -10.193784      -277.3870
  15   1.0000     -10.193409      -277.3768
  16   1.0000     -10.190037      -277.2850
  17   1.0000     -10.189950      -277.2826
  18   1.0000     -10.188991      -277.2565
  19   1.0000     -10.188307      -277.2379
  20   1.0000     -10.187690      -277.2211
  21   1.0000     -10.186763      -277.1959
  22   1.0000     -10.186354      -277.1848
  23   1.0000     -10.185430      -277.1596
  24   1.0000     -10.183743      -277.1137
  25   1.0000     -10.181673      -277.0574
  26   1.0000     -10.181435      -277.0509
  27   1.0000     -10.181247      -277.0458
  28   1.0000     -10.177015      -276.9306
  29   1.0000     -10.175544      -276.8906
  30   1.0000      -0.869141       -23.6505
  31   1.0000      -0.862798       -23.4779
  32   1.0000      -0.861066       -23.4308
  33   1.0000      -0.814375       -22.1603
  34   1.0000      -0.796768       -21.6812
  35   1.0000      -0.794298       -21.6139
  36   1.0000      -0.781416       -21.2634
  37   1.0000      -0.771893       -21.0043
  38   1.0000      -0.763782       -20.7836
  39   1.0000      -0.750593       -20.4247
  40   1.0000      -0.749007       -20.3815
  41   1.0000      -0.735773       -20.0214
  42   1.0000      -0.723589       -19.6899
  43   1.0000      -0.708052       -19.2671
  44   1.0000      -0.694625       -18.9017
  45   1.0000      -0.653093       -17.7716
  46   1.0000      -0.644561       -17.5394
  47   1.0000      -0.621660       -16.9162
  48   1.0000      -0.609045       -16.5729
  49   1.0000      -0.608612       -16.5612
  50   1.0000      -0.607709       -16.5366
  51   1.0000      -0.606907       -16.5148
  52   1.0000      -0.589317       -16.0361
  53   1.0000      -0.577951       -15.7269
  54   1.0000      -0.557692       -15.1756
  55   1.0000      -0.539790       -14.6884
  56   1.0000      -0.533951       -14.5296
  57   1.0000      -0.503374       -13.6975
  58   1.0000      -0.502103       -13.6629
  59   1.0000      -0.479583       -13.0501
  60   1.0000      -0.477575       -12.9955
  61   1.0000      -0.473761       -12.8917
  62   1.0000      -0.469478       -12.7751
  63   1.0000      -0.458580       -12.4786
  64   1.0000      -0.457299       -12.4437
  65   1.0000      -0.455704       -12.4003
  66   1.0000      -0.436120       -11.8674
  67   1.0000      -0.434377       -11.8200
  68   1.0000      -0.428675       -11.6648
  69   1.0000      -0.427152       -11.6234
  70   1.0000      -0.424523       -11.5518
  71   1.0000      -0.423780       -11.5316
  72   1.0000      -0.422433       -11.4950
  73   1.0000      -0.418869       -11.3980
  74   1.0000      -0.410678       -11.1751
  75   1.0000      -0.396360       -10.7855
  76   1.0000      -0.390575       -10.6281
  77   1.0000      -0.382545       -10.4096
  78   1.0000      -0.379996       -10.3402
  79   1.0000      -0.375292       -10.2122
  80   1.0000      -0.371925       -10.1206
  81   1.0000      -0.363550        -9.8927
  82   1.0000      -0.361241        -9.8299
  83   1.0000      -0.359295        -9.7769
  84   1.0000      -0.354514        -9.6468
  85   1.0000      -0.350320        -9.5327
  86   1.0000      -0.350049        -9.5253
  87   1.0000      -0.348642        -9.4870
  88   1.0000      -0.337555        -9.1853
  89   1.0000      -0.331720        -9.0266
  90   1.0000      -0.330609        -8.9963
  91   1.0000      -0.328485        -8.9385
  92   1.0000      -0.326934        -8.8963
  93   1.0000      -0.322647        -8.7797
  94   1.0000      -0.321247        -8.7416
  95   1.0000      -0.303329        -8.2540
  96   1.0000      -0.274323        -7.4647
  97   1.0000      -0.267601        -7.2818
  98   1.0000      -0.265764        -7.2318
  99   1.0000      -0.258545        -7.0354
 100   1.0000      -0.258260        -7.0276
 101   1.0000      -0.256551        -6.9811
 102   1.0000      -0.234175        -6.3722
 103   1.0000      -0.200743        -5.4625
 104   0.0000      -0.084798        -2.3075
 105   0.0000      -0.055284        -1.5044
 106   0.0000      -0.025403        -0.6912
 107   0.0000      -0.010179        -0.2770
 108   0.0000      -0.008104        -0.2205

MULLIKEN ATOMIC CHARGES AND SPIN POPULATIONS
--------------------------------------------
   0 C :    0.140095    0.099806
   1 C :    0.281684   -0.066466
   2 C :    0.270713    0.032144
   3 C :   -0.178732    0.223364
   4 C :    0.072013   -0.169442
   5 C :   -0.027940    0.221786
   6 C :   -0.143232   -0.106930
   7 C :   -0.086598    0.232555
   8 C :    0.008759   -0.118189
   9 H :   -0.054358   -0.009247
  10 H :   -0.055666    0.004299
  11 C :   -0.100253    0.696882
  12 H :   -0.026534   -0.030291
  13 C :    0.034866   -0.047776
  14 H :    0.028913    0.031325
  15 H :    0.028964    0.031110
  16 C :   -0.038668    0.002261
  17 H :    0.012181    0.000481
  18 H :    0.012176    0.000460
  19 C :    0.006693   -0.000178
  20 H :    0.017354    0.000152
  21 H :    0.017372    0.000152
  22 C :    0.040024   -0.018568
  23 H :    0.031694    0.009898
  24 H :    0.031696    0.009913
  25 C :   -0.033894    0.000867
  26 H :    0.016620    0.000168
  27 H :    0.016576    0.000169
  28 C :   -0.024274    0.000024
  29 H :    0.005215    0.000052
  30 H :    0.005220    0.000052
  31 C :    0.004019   -0.000080
  32 H :    0.017041    0.000023
  33 H :    0.017028    0.000023
  34 C :    0.126990   -0.047947
  35 H :    0.013064   -0.000200
  36 H :    0.012288   -0.000005
  37 C :   -0.255469    0.010892
  38 C :    0.030700   -0.011262
  39 C :    0.040858    0.005908
  40 C :    0.033362   -0.011931
  41 C :    0.040409    0.005901
  42 C :    0.028732   -0.011239
  43 H :   -0.027660    0.000547
  44 H :   -0.027715   -0.000239
  45 H :   -0.040771    0.000488
  46 H :   -0.039832    0.000465
  47 H :   -0.027637   -0.000239
  48 C :   -0.258791   -0.023441
  49 C :    0.025679    0.026397
  50 C :    0.040444   -0.013933
  51 C :    0.032968    0.028968
  52 C :    0.041060   -0.013920
  53 C :    0.030670    0.026479
  54 H :   -0.028268   -0.001331
  55 H :   -0.028174    0.000554
  56 H :   -0.039697   -0.001103
  57 H :   -0.041468   -0.001162
  58 H :   -0.028511    0.000554
Sum of atomic charges         :    0.0000000

LOEWDIN ATOMIC CHARGES AND SPIN POPULATIONS
-------------------------------------------
   0 C :   -0.022904    0.073181
   1 C :   -0.017072   -0.029837
   2 C :   -0.016064    0.016970
   3 C :   -0.039490    0.159752
   4 C :   -0.040035   -0.072081
   5 C :    0.009427    0.167360
   6 C :   -0.052933   -0.059100
   7 C :   -0.005793    0.171544
   8 C :   -0.008621   -0.064589
   9 H :    0.028002    0.000879
  10 H :    0.029413   -0.000457
  11 C :    0.011996    0.571443
  12 H :    0.021196    0.003381
  13 C :   -0.054508    0.005378
  14 H :    0.034317    0.024443
  15 H :    0.034268    0.024262
  16 C :   -0.046053    0.001163
  17 H :    0.025524    0.000305
  18 H :    0.025507    0.000293
  19 C :   -0.067601   -0.000042
  20 H :    0.025542    0.000245
  21 H :    0.025541    0.000246
  22 C :   -0.035502    0.002133
  23 H :    0.038727    0.007784
  24 H :    0.038736    0.007796
  25 C :   -0.043435    0.000153
  26 H :    0.024520    0.000053
  27 H :    0.024526    0.000053
  28 C :   -0.047211    0.000016
  29 H :    0.023776    0.000088
  30 H :    0.023777    0.000088
  31 C :   -0.067498   -0.000038
  32 H :    0.025199    0.000016
  33 H :    0.025197    0.000016
  34 C :   -0.023128   -0.034386
  35 H :    0.028166   -0.000110
  36 H :    0.027330   -0.000007
  37 C :   -0.053373    0.004973
  38 C :   -0.001305   -0.008670
  39 C :   -0.023733    0.003506
  40 C :   -0.021403   -0.009211
  41 C :   -0.023872    0.003502
  42 C :   -0.002284   -0.008659
  43 H :    0.028114   -0.000033
  44 H :    0.029283    0.000012
  45 H :    0.030012   -0.000010
  46 H :    0.029949   -0.000015
  47 H :    0.029341    0.000011
  48 C :   -0.053293   -0.010646
  49 C :   -0.003115    0.020371
  50 C :   -0.024209   -0.008212
  51 C :   -0.022357    0.022386
  52 C :   -0.024101   -0.008193
  53 C :   -0.001702    0.020430
  54 H :    0.027803    0.000085
  55 H :    0.029143   -0.000033
  56 H :    0.029414    0.000023
  57 H :    0.029756    0.000019
  58 H :    0.029093   -0.000034

  Mayer bond orders larger than 0.100000
B(  0-C ,  1-C ) :   1.7104 B(  0-C , 48-C ) :   0.9334 B(  1-C ,  3-C ) :   0.8742
B(  1-C , 48-C ) :  -0.1833 B(  2-C ,  6-C ) :   0.8748 B(  2-C , 34-C ) :   1.7519
B(  2-C , 37-C ) :  -0.1771 B(  3-C ,  4-C ) :   1.2776 B(  3-C ,  8-C ) :   1.3995
B(  4-C ,  5-C ) :   1.2897 B(  4-C , 11-C ) :   1.3815 B(  5-C ,  6-C ) :   1.4491
B(  5-C ,  9-H ) :   0.9176 B(  6-C ,  7-C ) :   1.3430 B(  7-C ,  8-C ) :   1.4279
B(  7-C , 22-C ) :   1.0957 B(  8-C , 10-H ) :   0.9199 B( 11-C , 12-H ) :   0.8983
B( 11-C , 13-C ) :   1.0841 B( 13-C , 14-H ) :   0.9115 B( 13-C , 15-H ) :   0.9114
B( 13-C , 16-C ) :   1.0716 B( 16-C , 17-H ) :   0.9437 B( 16-C , 18-H ) :   0.9437
B( 16-C , 19-C ) :   1.1066 B( 19-C , 20-H ) :   0.9653 B( 19-C , 21-H ) :   0.9653
B( 19-C , 35-H ) :   0.9608 B( 22-C , 23-H ) :   0.8957 B( 22-C , 24-H ) :   0.8957
B( 22-C , 25-C ) :   1.1045 B( 25-C , 26-H ) :   0.9292 B( 25-C , 27-H ) :   0.9292
B( 25-C , 28-C ) :   1.0748 B( 28-C , 29-H ) :   0.9409 B( 28-C , 30-H ) :   0.9409
B( 28-C , 31-C ) :   1.1062 B( 31-C , 32-H ) :   0.9662 B( 31-C , 33-H ) :   0.9662
B( 31-C , 36-H ) :   0.9617 B( 34-C , 37-C ) :   0.9307 B( 37-C , 38-C ) :   1.4428
B( 37-C , 42-C ) :   1.4388 B( 38-C , 39-C ) :   1.4700 B( 38-C , 45-H ) :   0.9401
B( 39-C , 40-C ) :   1.4443 B( 39-C , 47-H ) :   0.9380 B( 40-C , 41-C ) :   1.4438
B( 40-C , 43-H ) :   0.9433 B( 41-C , 42-C ) :   1.4702 B( 41-C , 44-H ) :   0.9380
B( 42-C , 46-H ) :   0.9405 B( 48-C , 49-C ) :   1.4365 B( 48-C , 53-C ) :   1.4390
B( 49-C , 50-C ) :   1.4712 B( 49-C , 56-H ) :   0.9405 B( 50-C , 51-C ) :   1.4425
B( 50-C , 58-H ) :   0.9379 B( 51-C , 52-C ) :   1.4424 B( 51-C , 54-H ) :   0.9433
B( 52-C , 53-C ) :   1.4723 B( 52-C , 55-H ) :   0.9378 B( 53-C , 57-H ) :   0.9399

FINAL SINGLE POINT ENERGY     -1159.836514582877

DIPOLE MOMENT
-------------
                                X             Y             Z
Electronic contribution:     -0.50664       2.18362       0.02571
Nuclear contribution   :      0.63614      -2.16497      -0.02623
                        -----------------------------------------
Total Dipole Moment    :      0.12950       0.01865      -0.00051
                        -----------------------------------------
Magnitude (a.u.)       :      0.13084
Magnitude (Debye)      :      0.33257

Rotational constants in cm-1:     0.005965     0.001994     0.001497
Rotational constants in MHz :   178.839864    59.767525    44.884240

                             ****ORCA TERMINATED NORMALLY****
TOTAL RUN TIME: 0 days 0 hours 5 minutes 15 seconds 439 msec
