                         Program Version 5.0.4 -  RELEASE  -
|  1> ! B3LYP cc-pVDZ OPT
|  2> %pal nprocs 16 end
|  3> *XYZFile 0 2 model.xyz
|  4>
|  5>                          ****END OF INPUT****
 Total Charge           Charge          ....    0
 Multiplicity           Mult            ....    2
 Number of Electrons    NEL             ....  209
FINAL SINGLE POINT ENERGY     -1159.836516334045
FINAL SINGLE POINT ENERGY     -1159.836518210857
FINAL SINGLE POINT ENERGY     -1159.836517022530
FINAL SINGLE POINT ENERGY     -1159.836515511125
                    ***********************HURRAY********************

CARTESIAN COORDINATES (ANGSTROEM)
---------------------------------
  C     -4.058780   -0.114027   -0.000729
  C     -2.837067   -0.037217    0.000458
  C      2.839456    0.025128    0.001303
  C     -1.417730    0.016651    0.000204
  C     -0.712128    1.278604   -0.003269
  C      0.709687    1.211983   -0.002475
  C      1.411298    0.003549    0.000975
  C      0.702255   -1.241266    0.003983
  C     -0.691408   -1.190779    0.003621
  H      1.285445    2.137757   -0.004762
  H     -1.264663   -2.117693    0.006030
  C     -1.396749    2.512534   -0.007530
  H     -2.489374    2.477379   -0.008222
  C     -0.740034    3.860790   -0.011243
  H     -0.071952    3.959921    0.869257
  H     -0.065383    3.951892   -0.887544
  C     -1.737595    5.026485   -0.020436
  H     -2.392913    4.932401   -0.905600
  H     -2.399942    4.940503    0.860321
  C     -1.059047    6.397666   -0.024026
  H     -0.415065    6.523869   -0.911556
  H     -0.422198    6.532067    0.867440
  C      1.476339   -2.542840    0.007434
  H      2.155053   -2.543120   -0.866126
  H      2.153685   -2.539371    0.882056
  C      0.658132   -3.836796    0.009521
  H     -0.005723   -3.860159    0.893279
  H     -0.004355   -3.863766   -0.875166
  C      1.539543   -5.091841    0.012796
  H      2.206455   -5.070185   -0.869111
  H      2.204866   -5.066716    0.895810
  C      0.733887   -6.393511    0.014637
  H      0.084970   -6.463882   -0.875410
  H      0.082960   -6.460115    0.903504
  C      4.061356    0.051700    0.002498
  H     -1.799216    7.213950   -0.030767
  H      1.392930   -7.276874    0.017252
  C      5.489033    0.088671    0.002622
  C      6.175837    1.322543    0.001416
  C      7.570008    1.354492    0.001416
  C      8.304589    0.163225    0.002633
  C      7.634082   -1.065321    0.003864
  C      6.240226   -1.107100    0.003878
  H      9.396716    0.192185    0.002617
  H      8.202215   -1.998703    0.004810
  H      5.600673    2.250353    0.000473
  H      5.715229   -2.064211    0.004815
  H      8.088008    2.316597    0.000461
  C     -5.481361   -0.217167   -0.000792
  C     -6.291506    0.940362   -0.001962
  C     -7.681432    0.829777   -0.001873
  C     -8.291180   -0.430157   -0.000632
  C     -7.498648   -1.583951    0.000528
  C     -6.108081   -1.483701    0.000446
  H     -9.380565   -0.512687   -0.000545
  H     -7.968746   -2.570377    0.001498
  H     -5.815246    1.922629   -0.002861
  H     -5.488129   -2.382218    0.001345
  H     -8.294683    1.734189   -0.002759

 Multiplicity           Mult            ....    2
 Number of Electrons    NEL             ....  209
 Basis Dimension        Dim             ....  565

ORBITAL ENERGIES
----------------
                 SPIN UP ORBITALS
  NO   OCC          E(Eh)            E(eV)
   0   1.0000     -10.215978      -277.9909
   1   1.0000     -10.214494      -277.9505
   2   1.0000     -10.212672      -277.9009
   3   1.0000     -10.210542      -277.8430
   4   1.0000     -10.200999      -277.5833
   5   1.0000     -10.196950      -277.4731
   6   1.0000     -10.196575      -277.4629
   7   1.0000     -10.196446      -277.4594
   8   1.0000     -10.195538      -277.4347
   9   1.0000     -10.195476      -277.4330
  10   1.0000     -10.195290      -277.4279
  11   1.0000     -10.195033      -277.4209
  12   1.0000     -10.194794      -277.4145
  13   1.0000     -10.194255      -277.3998
  14   1.0000     -10.193620      -277.3825
  15   1.0000     -10.193438      -277.3776
  16   1.0000     -10.193154      -277.3698
  17   1.0000     -10.191307      -277.3196
  18   1.0000     -10.188787      -277.2510
  19   1.0000     -10.188363      -277.2394
  20   1.0000     -10.187950      -277.2282
  21   1.0000     -10.187635      -277.2196
  22   1.0000     -10.186786      -277.1965
  23   1.0000     -10.186153      -277.1793
  24   1.0000     -10.185618      -277.1647
  25   1.0000     -10.183784      -277.1149
  26   1.0000     -10.181673      -277.0574
  27   1.0000     -10.181252      -277.0459
  28   1.0000     -10.177007      -276.9304
  29   1.0000     -10.175543      -276.8906
  30   1.0000      -0.872375       -23.7385
  31   1.0000      -0.862721       -23.4758
  32   1.0000      -0.861539       -23.4437
  33   1.0000      -0.819141       -22.2900
  34   1.0000      -0.798610       -21.7313
  35   1.0000      -0.796129       -21.6638
  36   1.0000      -0.781780       -21.2733
  37   1.0000      -0.772771       -21.0282
  38   1.0000      -0.765771       -20.8377
  39   1.0000      -0.750440       -20.4205
  40   1.0000      -0.749366       -20.3913
  41   1.0000      -0.737889       -20.0790
  42   1.0000      -0.726097       -19.7581
  43   1.0000      -0.709292       -19.3008
  44   1.0000      -0.696733       -18.9591
  45   1.0000      -0.656045       -17.8519
  46   1.0000      -0.645904       -17.5759
  47   1.0000      -0.623106       -16.9556
  48   1.0000      -0.613071       -16.6825
  49   1.0000      -0.608761       -16.5652
  50   1.0000      -0.608367       -16.5545
  51   1.0000      -0.607216       -16.5232
  52   1.0000      -0.590186       -16.0598
  53   1.0000      -0.579558       -15.7706
  54   1.0000      -0.560593       -15.2545
  55   1.0000      -0.540186       -14.6992
  56   1.0000      -0.534503       -14.5446
  57   1.0000      -0.506642       -13.7864
  58   1.0000      -0.503572       -13.7029
  59   1.0000      -0.479841       -13.0571
  60   1.0000      -0.478726       -13.0268
  61   1.0000      -0.474536       -12.9128
  62   1.0000      -0.470297       -12.7974
  63   1.0000      -0.461952       -12.5703
  64   1.0000      -0.457234       -12.4420
  65   1.0000      -0.455910       -12.4059
  66   1.0000      -0.436556       -11.8793
  67   1.0000      -0.434759       -11.8304
  68   1.0000      -0.430446       -11.7130
  69   1.0000      -0.428195       -11.6518
  70   1.0000      -0.425616       -11.5816
  71   1.0000      -0.423756       -11.5310
  72   1.0000      -0.422538       -11.4979
  73   1.0000      -0.421407       -11.4671
  74   1.0000      -0.411188       -11.1890
  75   1.0000      -0.397965       -10.8292
  76   1.0000      -0.397440       -10.8149
  77   1.0000      -0.383831       -10.4446
  78   1.0000      -0.381147       -10.3715
  79   1.0000      -0.377586       -10.2746
  80   1.0000      -0.374525       -10.1913
  81   1.0000      -0.364648        -9.9226
  82   1.0000      -0.361434        -9.8351
  83   1.0000      -0.359505        -9.7826
  84   1.0000      -0.355268        -9.6673
  85   1.0000      -0.353253        -9.6125
  86   1.0000      -0.350013        -9.5243
  87   1.0000      -0.348815        -9.4917
  88   1.0000      -0.339736        -9.2447
  89   1.0000      -0.332265        -9.0414
  90   1.0000      -0.331941        -9.0326
  91   1.0000      -0.330687        -8.9985
  92   1.0000      -0.327295        -8.9061
  93   1.0000      -0.323465        -8.8019
  94   1.0000      -0.321630        -8.7520
  95   1.0000      -0.305626        -8.3165
  96   1.0000      -0.278144        -7.5687
  97   1.0000      -0.271913        -7.3991
  98   1.0000      -0.267734        -7.2854
  99   1.0000      -0.266203        -7.2437
 100   1.0000      -0.258116        -7.0237
 101   1.0000      -0.257567        -7.0088
 102   1.0000      -0.235966        -6.4210
 103   1.0000      -0.208140        -5.6638
 104   1.0000      -0.169526        -4.6130
 105   0.0000      -0.063778        -1.7355
 106   0.0000      -0.026998        -0.7346
 107   0.0000      -0.009809        -0.2669
 108   0.0000      -0.008981        -0.2444
 109   0.0000       0.005699         0.1551

                 SPIN DOWN ORBITALS
  NO   OCC          E(Eh)            E(eV)
   0   1.0000     -10.215813      -277.9864
   1   1.0000     -10.214852      -277.9603
   2   1.0000     -10.212147      -277.8866
   3   1.0000     -10.209310      -277.8095
   4   1.0000     -10.199407      -277.5400
   5   1.0000     -10.197615      -277.4912
   6   1.0000     -10.196738      -277.4673
   7   1.0000     -10.196609      -277.4638
   8   1.0000     -10.195579      -277.4358
   9   1.0000     -10.195156      -277.4243
  10   1.0000     -10.194959      -277.4190
  11   1.0000     -10.194912      -277.4177
  12   1.0000     -10.194781      -277.4141
  13   1.0000     -10.194066      -277.3946
  14   1.0000     -10.193785      -277.3870
  15   1.0000     -10.193409      -277.3768
  16   1.0000     -10.190037      -277.2850
  17   1.0000     -10.189945      -277.2825
  18   1.0000     -10.188990      -277.2565
  19   1.0000     -10.188310      -277.2380
  20   1.0000     -10.187688      -277.2211
  21   1.0000     -10.186763      -277.1959
  22   1.0000     -10.186355      -277.1848
  23   1.0000     -10.185429      -277.1596
  24   1.0000     -10.183745      -277.1138
  25   1.0000     -10.181673      -277.0574
  26   1.0000     -10.181437      -277.0510
  27   1.0000     -10.181248      -277.0458
  28   1.0000     -10.177015      -276.9307
  29   1.0000     -10.175545      -276.8906
  30   1.0000      -0.869141       -23.6505
  31   1.0000      -0.862796       -23.4779
  32   1.0000      -0.861064       -23.4307
  33   1.0000      -0.814375       -22.1603
  34   1.0000      -0.796768       -21.6812
  35   1.0000      -0.794295       -21.6139
  36   1.0000      -0.781414       -21.2634
  37   1.0000      -0.771892       -21.0042
  38   1.0000      -0.763779       -20.7835
  39   1.0000      -0.750592       -20.4246
  40   1.0000      -0.749006       -20.3815
  41   1.0000      -0.735774       -20.0214
  42   1.0000      -0.723586       -19.6898
  43   1.0000      -0.708049       -19.2670
  44   1.0000      -0.694624       -18.9017
  45   1.0000      -0.653095       -17.7716
  46   1.0000      -0.644557       -17.5393
  47   1.0000      -0.621659       -16.9162
  48   1.0000      -0.609046       -16.5730
  49   1.0000      -0.608612       -16.5612
  50   1.0000      -0.607708       -16.5366
  51   1.0000      -0.606908       -16.5148
  52   1.0000      -0.589321       -16.0362
  53   1.0000      -0.577957       -15.7270
  54   1.0000      -0.557697       -15.1757
  55   1.0000      -0.539789       -14.6884
  56   1.0000      -0.533950       -14.5295
  57   1.0000      -0.503375       -13.6975
  58   1.0000      -0.502102       -13.6629
  59   1.0000      -0.479583       -13.0501
  60   1.0000      -0.477576       -12.9955
  61   1.0000      -0.473762       -12.8917
  62   1.0000      -0.469478       -12.7751
  63   1.0000      -0.458582       -12.4786
  64   1.0000      -0.457297       -12.4437
  65   1.0000      -0.455702       -12.4003
  66   1.0000      -0.436119       -11.8674
  67   1.0000      -0.434377       -11.8200
  68   1.0000      -0.428675       -11.6648
  69   1.0000      -0.427146       -11.6232
  70   1.0000      -0.424519       -11.5518
  71   1.0000      -0.423780       -11.5316
  72   1.0000      -0.422435       -11.4950
  73   1.0000      -0.418871       -11.3980
  74   1.0000      -0.410672       -11.1750
  75   1.0000      -0.396357       -10.7854
  76   1.0000      -0.390579       -10.6282
  77   1.0000      -0.382546       -10.4096
  78   1.0000      -0.379995       -10.3402
  79   1.0000      -0.375287       -10.2121
  80   1.0000      -0.371926       -10.1206
  81   1.0000      -0.363548        -9.8927
  82   1.0000      -0.361238        -9.8298
  83   1.0000      -0.359293        -9.7769
  84   1.0000      -0.354511        -9.6467
  85   1.0000      -0.350324        -9.5328
  86   1.0000      -0.350050        -9.5254
  87   1.0000      -0.348645        -9.4871
  88   1.0000      -0.337554        -9.1853
  89   1.0000      -0.331721        -9.0266
  90   1.0000      -0.330611        -8.9964
  91   1.0000      -0.328492        -8.9387
  92   1.0000      -0.326935        -8.8963
  93   1.0000      -0.322647        -8.7797
  94   1.0000      -0.321253        -8.7417
  95   1.0000      -0.303328        -8.2540
  96   1.0000      -0.274323        -7.4647
  97   1.0000      -0.267601        -7.2818
  98   1.0000      -0.265764        -7.2318
  99   1.0000      -0.258544        -7.0353
 100   1.0000      -0.258259        -7.0276
 101   1.0000      -0.256551        -6.9811
 102   1.0000      -0.234173        -6.3722
 103   1.0000      -0.200742        -5.4625
 104   0.0000      -0.084801        -2.3075
 105   0.0000      -0.055282        -1.5043
 106   0.0000      -0.025402        -0.6912
 107   0.0000      -0.010180        -0.2770
 108   0.0000      -0.008106        -0.2206

MULLIKEN ATOMIC CHARGES AND SPIN POPULATIONS
--------------------------------------------
   0 C :    0.140078    0.099810
   1 C :    0.281696   -0.066470
   2 C :    0.270684    0.032152
   3 C :   -0.178754    0.223359
   4 C :    0.072065   -0.169443
   5 C :   -0.027964    0.221812
   6 C :   -0.143248   -0.106935
   7 C :   -0.086586    0.232561
   8 C :    0.008778   -0.118194
   9 H :   -0.054363   -0.009248
  10 H :   -0.055670    0.004299
  11 C :   -0.100269    0.696867
  12 H :   -0.026545   -0.030291
  13 C :    0.034870   -0.047773
  14 H :    0.028917    0.031309
  15 H :    0.028969    0.031118
  16 C :   -0.038660    0.002260
  17 H :    0.012184    0.000480
  18 H :    0.012173    0.000461
  19 C :    0.006682   -0.000178
  20 H :    0.017356    0.000152
  21 H :    0.017373    0.000152
  22 C :    0.040037   -0.018568
  23 H :    0.031689    0.009898
  24 H :    0.031692    0.009913
  25 C :   -0.033898    0.000867
  26 H :    0.016625    0.000168
  27 H :    0.016577    0.000169
  28 C :   -0.024279    0.000024
  29 H :    0.005213    0.000052
  30 H :    0.005221    0.000052
  31 C :    0.004019   -0.000080
  32 H :    0.017043    0.000023
  33 H :    0.017031    0.000023
  34 C :    0.126996   -0.047950
  35 H :    0.013060   -0.000200
  36 H :    0.012291   -0.000005
  37 C :   -0.255462    0.010891
  38 C :    0.030705   -0.011263
  39 C :    0.040858    0.005908
  40 C :    0.033367   -0.011931
  41 C :    0.040407    0.005901
  42 C :    0.028737   -0.011239
  43 H :   -0.027663    0.000547
  44 H :   -0.027714   -0.000239
  45 H :   -0.040766    0.000488
  46 H :   -0.039834    0.000465
  47 H :   -0.027637   -0.000239
  48 C :   -0.258788   -0.023442
  49 C :    0.025673    0.026400
  50 C :    0.040442   -0.013935
  51 C :    0.032971    0.028971
  52 C :    0.041062   -0.013922
  53 C :    0.030675    0.026483
  54 H :   -0.028271   -0.001331
  55 H :   -0.028174    0.000554
  56 H :   -0.039697   -0.001104
  57 H :   -0.041465   -0.001162
  58 H :   -0.028510    0.000554
Sum of atomic charges         :    0.0000000

LOEWDIN ATOMIC CHARGES AND SPIN POPULATIONS
-------------------------------------------
   0 C :   -0.022905    0.073185
   1 C :   -0.017072   -0.029838
   2 C :   -0.016073    0.016968
   3 C :   -0.039493    0.159743
   4 C :   -0.040043   -0.072078
   5 C :    0.009434    0.167381
   6 C :   -0.052941   -0.059098
   7 C :   -0.005799    0.171546
   8 C :   -0.008616   -0.064592
   9 H :    0.028001    0.000879
  10 H :    0.029413   -0.000457
  11 C :    0.012001    0.571430
  12 H :    0.021192    0.003381
  13 C :   -0.054499    0.005376
  14 H :    0.034313    0.024430
  15 H :    0.034271    0.024268
  16 C :   -0.046047    0.001163
  17 H :    0.025522    0.000305
  18 H :    0.025504    0.000294
  19 C :   -0.067601   -0.000042
  20 H :    0.025541    0.000245
  21 H :    0.025540    0.000246
  22 C :   -0.035499    0.002134
  23 H :    0.038726    0.007785
  24 H :    0.038736    0.007796
  25 C :   -0.043426    0.000153
  26 H :    0.024519    0.000053
  27 H :    0.024523    0.000053
  28 C :   -0.047203    0.000016
  29 H :    0.023772    0.000088
  30 H :    0.023774    0.000088
  31 C :   -0.067495   -0.000038
  32 H :    0.025199    0.000016
  33 H :    0.025196    0.000016
  34 C :   -0.023123   -0.034384
  35 H :    0.028165   -0.000110
  36 H :    0.027330   -0.000007
  37 C :   -0.053371    0.004973
  38 C :   -0.001304   -0.008670
  39 C :   -0.023733    0.003506
  40 C :   -0.021402   -0.009211
  41 C :   -0.023872    0.003502
  42 C :   -0.002281   -0.008659
  43 H :    0.028112   -0.000033
  44 H :    0.029282    0.000012
  45 H :    0.030011   -0.000010
  46 H :    0.029948   -0.000015
  47 H :    0.029340    0.000011
  48 C :   -0.053293   -0.010647
  49 C :   -0.003111    0.020373
  50 C :   -0.024210   -0.008214
  51 C :   -0.022357    0.022388
  52 C :   -0.024099   -0.008195
  53 C :   -0.001703    0.020433
  54 H :    0.027800    0.000085
  55 H :    0.029143   -0.000033
  56 H :    0.029414    0.000023
  57 H :    0.029755    0.000019
  58 H :    0.029093   -0.000034

  Mayer bond orders larger than 0.100000
B(  0-C ,  1-C ) :   1.7104 B(  0-C , 48-C ) :   0.9334 B(  1-C ,  3-C ) :   0.8742
B(  1-C , 48-C ) :  -0.1833 B(  2-C ,  6-C ) :   0.8748 B(  2-C , 34-C ) :   1.7520
B(  2-C , 37-C ) :  -0.1771 B(  3-C ,  4-C ) :   1.2776 B(  3-C ,  8-C ) :   1.3995
B(  4-C ,  5-C ) :   1.2897 B(  4-C , 11-C ) :   1.3816 B(  5-C ,  6-C ) :   1.4492
B(  5-C ,  9-H ) :   0.9176 B(  6-C ,  7-C ) :   1.3430 B(  7-C ,  8-C ) :   1.4279
B(  7-C , 22-C ) :   1.0957 B(  8-C , 10-H ) :   0.9199 B( 11-C , 12-H ) :   0.8983
B( 11-C , 13-C ) :   1.0841 B( 13-C , 14-H ) :   0.9115 B( 13-C , 15-H ) :   0.9114
B( 13-C , 16-C ) :   1.0716 B( 16-C , 17-H ) :   0.9437 B( 16-C , 18-H ) :   0.9437
B( 16-C , 19-C ) :   1.1066 B( 19-C , 20-H ) :   0.9653 B( 19-C , 21-H ) :   0.9653
B( 19-C , 35-H ) :   0.9608 B( 22-C , 23-H ) :   0.8957 B( 22-C , 24-H ) :   0.8957
B( 22-C , 25-C ) :   1.1045 B( 25-C , 26-H ) :   0.9292 B( 25-C , 27-H ) :   0.9292
B( 25-C , 28-C ) :   1.0748 B( 28-C , 29-H ) :   0.9409 B( 28-C , 30-H ) :   0.9409
B( 28-C , 31-C ) :   1.1062 B( 31-C , 32-H ) :   0.9662 B( 31-C , 33-H ) :   0.9662
B( 31-C , 36-H ) :   0.9617 B( 34-C , 37-C ) :   0.9308 B( 37-C , 38-C ) :   1.4428
B( 37-C , 42-C ) :   1.4388 B( 38-C , 39-C ) :   1.4700 B( 38-C , 45-H ) :   0.9401
B( 39-C , 40-C ) :   1.4443 B( 39-C , 47-H ) :   0.9380 B( 40-C , 41-C ) :   1.4438
B( 40-C , 43-H ) :   0.9433 B( 41-C , 42-C ) :   1.4701 B( 41-C , 44-H ) :   0.9380
B( 42-C , 46-H ) :   0.9405 B( 48-C , 49-C ) :   1.4365 B( 48-C , 53-C ) :   1.4390
B( 49-C , 50-C ) :   1.4712 B( 49-C , 56-H ) :   0.9405 B( 50-C , 51-C ) :   1.4426
B( 50-C , 58-H ) :   0.9379 B( 51-C , 52-C ) :   1.4424 B( 51-C , 54-H ) :   0.9433
B( 52-C , 53-C ) :   1.4723 B( 52-C , 55-H ) :   0.9379 B( 53-C , 57-H ) :   0.9399

FINAL SINGLE POINT ENERGY     -1159.836514487080

DIPOLE MOMENT
-------------
                                X             Y             Z
Electronic contribution:     -0.50644       2.18351       0.02450
Nuclear contribution   :      0.63594      -2.16475      -0.02495
                        -----------------------------------------
Total Dipole Moment    :      0.12950       0.01876      -0.00046
                        -----------------------------------------
Magnitude (a.u.)       :      0.13085
Magnitude (Debye)      :      0.33259

Rotational constants in cm-1:     0.005965     0.001994     0.001497
Rotational constants in MHz :   178.831081    59.768381    44.884172

                             ****ORCA TERMINATED NORMALLY****
TOTAL RUN TIME: 0 days 0 hours 11 minutes 47 seconds 164 msec
