                         Program Version 5.0.4 -  RELEASE  -
|  1> ! B3LYP cc-pVDZ AUTOAUX
|  2> %pal nprocs 16 end
|  3> *XYZFile 0 2 opt.xyz
|  4> %EPRNMR
|  5>         GTENSOR   TRUE
|  6>         NUCLEI    = ALL H {SHIFT, AISO, ADIP, AORB}
|  7>         ORI       CenterOfElCharge
|  8> END
|  9>
| 10>                          ****END OF INPUT****

CARTESIAN COORDINATES (ANGSTROEM)
---------------------------------
  C     -2.934073   -0.018766   -0.033821
  C      1.296326    0.061617    0.042355
  C      0.590316    1.299012    0.023646
  C     -0.830012    1.218758   -0.002083
  C     -1.498941   -0.010710   -0.008376
  C     -0.774370   -1.238300    0.010896
  C      0.629305   -1.156514    0.035978
  H     -1.426643    2.131592   -0.017243
  H      1.218068   -2.074806    0.050925
  C      1.286599    2.534948    0.031266
  H      2.380846    2.491530    0.052874
  C      0.640774    3.887237    0.012787
  H     -0.012358    3.982869   -0.879700
  H     -0.049610    3.989014    0.876092
  C      1.643397    5.048244    0.030137
  H      2.282865    4.958144    0.927400
  H      2.320748    4.952086   -0.838264
  C      0.972655    6.422996    0.011073
  H      0.314265    6.559972    0.886339
  H      0.351320    6.553366   -0.891860
  C     -1.525236   -2.553953    0.005144
  H     -2.211934   -2.565966    0.872443
  H     -2.196235   -2.567265   -0.874138
  C     -0.682959   -3.832515    0.013733
  H     -0.008492   -3.844031   -0.862466
  H     -0.029866   -3.846912    0.905937
  C     -1.540346   -5.103812    0.002012
  H     -2.217942   -5.093520    0.875899
  H     -2.195918   -5.092106   -0.888500
  C     -0.711165   -6.390340    0.011269
  H     -0.071581   -6.448752    0.909014
  H     -0.048195   -6.446330   -0.869486
  C     -4.149637   -0.020449   -0.056778
  H     -5.221734   -0.017269   -0.080213
  H      1.717399    7.235047    0.023638
  H     -1.353742   -7.285750    0.001613
  H      2.389514    0.078501    0.062394

 Total Charge           Charge          ....    0
 Multiplicity           Mult            ....    2
 Number of Electrons    NEL             ....  117
 Basis Dimension        Dim             ....  329

ORBITAL ENERGIES
----------------
                 SPIN UP ORBITALS
  NO   OCC          E(Eh)            E(eV)
   0   1.0000     -10.207408      -277.7577
   1   1.0000     -10.199210      -277.5346
   2   1.0000     -10.192014      -277.3388
   3   1.0000     -10.191439      -277.3232
   4   1.0000     -10.190787      -277.3054
   5   1.0000     -10.189322      -277.2655
   6   1.0000     -10.188431      -277.2413
   7   1.0000     -10.187097      -277.2050
   8   1.0000     -10.184289      -277.1286
   9   1.0000     -10.184215      -277.1266
  10   1.0000     -10.184001      -277.1208
  11   1.0000     -10.182606      -277.0828
  12   1.0000     -10.180733      -277.0318
  13   1.0000     -10.180524      -277.0261
  14   1.0000     -10.176975      -276.9296
  15   1.0000     -10.175108      -276.8788
  16   1.0000      -0.865756       -23.5584
  17   1.0000      -0.814440       -22.1620
  18   1.0000      -0.794868       -21.6294
  19   1.0000      -0.780037       -21.2259
  20   1.0000      -0.763607       -20.7788
  21   1.0000      -0.730560       -19.8796
  22   1.0000      -0.723544       -19.6886
  23   1.0000      -0.696228       -18.9453
  24   1.0000      -0.653547       -17.7839
  25   1.0000      -0.622609       -16.9421
  26   1.0000      -0.612889       -16.6776
  27   1.0000      -0.588277       -16.0078
  28   1.0000      -0.578675       -15.7465
  29   1.0000      -0.559116       -15.2143
  30   1.0000      -0.525802       -14.3078
  31   1.0000      -0.494641       -13.4599
  32   1.0000      -0.472571       -12.8593
  33   1.0000      -0.469143       -12.7660
  34   1.0000      -0.462232       -12.5780
  35   1.0000      -0.461710       -12.5638
  36   1.0000      -0.428525       -11.6608
  37   1.0000      -0.426136       -11.5957
  38   1.0000      -0.422489       -11.4965
  39   1.0000      -0.419435       -11.4134
  40   1.0000      -0.410234       -11.1630
  41   1.0000      -0.395343       -10.7578
  42   1.0000      -0.387690       -10.5496
  43   1.0000      -0.375295       -10.2123
  44   1.0000      -0.374351       -10.1866
  45   1.0000      -0.362850        -9.8737
  46   1.0000      -0.348023        -9.4702
  47   1.0000      -0.347619        -9.4592
  48   1.0000      -0.338181        -9.2024
  49   1.0000      -0.331268        -9.0143
  50   1.0000      -0.330498        -8.9933
  51   1.0000      -0.324918        -8.8415
  52   1.0000      -0.322440        -8.7740
  53   1.0000      -0.321189        -8.7400
  54   1.0000      -0.307959        -8.3800
  55   1.0000      -0.271990        -7.4012
  56   1.0000      -0.267889        -7.2896
  57   1.0000      -0.236260        -6.4289
  58   1.0000      -0.171282        -4.6608
  59   0.0000      -0.031428        -0.8552
  60   0.0000       0.015241         0.4147
  61   0.0000       0.048163         1.3106
  62   0.0000       0.063215         1.7202
  63   0.0000       0.063828         1.7369

                 SPIN DOWN ORBITALS
  NO   OCC          E(Eh)            E(eV)
   0   1.0000     -10.208932      -277.7992
   1   1.0000     -10.195677      -277.4385
   2   1.0000     -10.194325      -277.4017
   3   1.0000     -10.188062      -277.2313
   4   1.0000     -10.187818      -277.2246
   5   1.0000     -10.187658      -277.2203
   6   1.0000     -10.186256      -277.1821
   7   1.0000     -10.185696      -277.1669
   8   1.0000     -10.184426      -277.1323
   9   1.0000     -10.183959      -277.1196
  10   1.0000     -10.183181      -277.0985
  11   1.0000     -10.181004      -277.0392
  12   1.0000     -10.180733      -277.0318
  13   1.0000     -10.180521      -277.0261
  14   1.0000     -10.176983      -276.9298
  15   1.0000     -10.175110      -276.8788
  16   1.0000      -0.862259       -23.4633
  17   1.0000      -0.808569       -22.0023
  18   1.0000      -0.793269       -21.5859
  19   1.0000      -0.779331       -21.2067
  20   1.0000      -0.761427       -20.7195
  21   1.0000      -0.726440       -19.7674
  22   1.0000      -0.721475       -19.6323
  23   1.0000      -0.693923       -18.8826
  24   1.0000      -0.650395       -17.6981
  25   1.0000      -0.619933       -16.8692
  26   1.0000      -0.607263       -16.5245
  27   1.0000      -0.587173       -15.9778
  28   1.0000      -0.576479       -15.6868
  29   1.0000      -0.556459       -15.1420
  30   1.0000      -0.524104       -14.2616
  31   1.0000      -0.492237       -13.3945
  32   1.0000      -0.470457       -12.8018
  33   1.0000      -0.468323       -12.7437
  34   1.0000      -0.460397       -12.5280
  35   1.0000      -0.458220       -12.4688
  36   1.0000      -0.426230       -11.5983
  37   1.0000      -0.424984       -11.5644
  38   1.0000      -0.421517       -11.4701
  39   1.0000      -0.416938       -11.3454
  40   1.0000      -0.409736       -11.1495
  41   1.0000      -0.387494       -10.5442
  42   1.0000      -0.386431       -10.5153
  43   1.0000      -0.372216       -10.1285
  44   1.0000      -0.370754       -10.0887
  45   1.0000      -0.361833        -9.8460
  46   1.0000      -0.346588        -9.4312
  47   1.0000      -0.344975        -9.3872
  48   1.0000      -0.336094        -9.1456
  49   1.0000      -0.330620        -8.9966
  50   1.0000      -0.328507        -8.9391
  51   1.0000      -0.324413        -8.8277
  52   1.0000      -0.321860        -8.7583
  53   1.0000      -0.320277        -8.7152
  54   1.0000      -0.305560        -8.3147
  55   1.0000      -0.271904        -7.3989
  56   1.0000      -0.252751        -6.8777
  57   1.0000      -0.228035        -6.2052
  58   0.0000      -0.074556        -2.0288
  59   0.0000      -0.022333        -0.6077
  60   0.0000       0.033062         0.8997
  61   0.0000       0.048587         1.3221
  62   0.0000       0.063804         1.7362

MULLIKEN ATOMIC CHARGES AND SPIN POPULATIONS
--------------------------------------------
   0 C :    0.619807    0.027102
   1 C :    0.027376    0.218157
   2 C :    0.084722   -0.160665
   3 C :   -0.003471    0.222973
   4 C :   -0.042972   -0.104273
   5 C :   -0.085417    0.241213
   6 C :    0.026660   -0.113533
   7 H :   -0.052863   -0.009487
   8 H :   -0.043198    0.004242
   9 C :   -0.073401    0.737375
  10 H :   -0.038023   -0.032290
  11 C :    0.029229   -0.050512
  12 H :    0.027961    0.033376
  13 H :    0.028026    0.033272
  14 C :   -0.040619    0.002299
  15 H :    0.011599    0.000546
  16 H :    0.011590    0.000533
  17 C :    0.003456   -0.000200
  18 H :    0.017859    0.000165
  19 H :    0.017884    0.000165
  20 C :    0.043000   -0.019276
  21 H :    0.031044    0.010470
  22 H :    0.030910    0.010218
  23 C :   -0.035064    0.000877
  24 H :    0.014176    0.000171
  25 H :    0.014389    0.000150
  26 C :   -0.025293    0.000018
  27 H :    0.006029    0.000054
  28 H :    0.006040    0.000055
  29 C :    0.002956   -0.000083
  30 H :    0.016500    0.000024
  31 H :    0.016523    0.000023
  32 C :   -0.593745   -0.045204
  33 H :   -0.030713    0.001791
  34 H :    0.013197   -0.000212
  35 H :    0.012655   -0.000006
  36 H :   -0.048807   -0.009529
Sum of atomic charges         :    0.0000000

LOEWDIN ATOMIC CHARGES AND SPIN POPULATIONS
-------------------------------------------
   0 C :   -0.000164    0.012791
   1 C :   -0.005461    0.167749
   2 C :   -0.054947   -0.067727
   3 C :    0.006876    0.170463
   4 C :   -0.057491   -0.054760
   5 C :   -0.003319    0.180267
   6 C :   -0.033551   -0.062690
   7 H :    0.027074    0.000860
   8 H :    0.026692   -0.000450
   9 C :    0.002786    0.606925
  10 H :    0.016454    0.002965
  11 C :   -0.055748    0.005888
  12 H :    0.034053    0.026086
  13 H :    0.034035    0.025995
  14 C :   -0.046309    0.001292
  15 H :    0.025041    0.000345
  16 H :    0.025027    0.000337
  17 C :   -0.067650   -0.000033
  18 H :    0.025701    0.000266
  19 H :    0.025700    0.000266
  20 C :   -0.036343    0.002268
  21 H :    0.039288    0.008248
  22 H :    0.039206    0.008053
  23 C :   -0.043801    0.000151
  24 H :    0.023543    0.000056
  25 H :    0.023495    0.000050
  26 C :   -0.047127    0.000012
  27 H :    0.024172    0.000091
  28 H :    0.024175    0.000091
  29 C :   -0.067913   -0.000040
  30 H :    0.024894    0.000016
  31 H :    0.024911    0.000016
  32 C :   -0.055317   -0.035703
  33 H :    0.021775   -0.000068
  34 H :    0.028101   -0.000115
  35 H :    0.027406   -0.000007
  36 H :    0.024736    0.000045

  Mayer bond orders larger than 0.100000
B(  0-C ,  4-C ) :   0.9026 B(  0-C , 32-C ) :   2.1442 B(  1-C ,  2-C ) :   1.2936
B(  1-C ,  6-C ) :   1.4707 B(  1-C , 36-H ) :   0.9316 B(  2-C ,  3-C ) :   1.3035
B(  2-C ,  9-C ) :   1.3056 B(  3-C ,  4-C ) :   1.4466 B(  3-C ,  7-H ) :   0.9258
B(  4-C ,  5-C ) :   1.3647 B(  5-C ,  6-C ) :   1.4100 B(  5-C , 20-C ) :   1.0922
B(  6-C ,  8-H ) :   0.9184 B(  9-C , 10-H ) :   0.9302 B(  9-C , 11-C ) :   1.0818
B( 11-C , 12-H ) :   0.9135 B( 11-C , 13-H ) :   0.9134 B( 11-C , 14-C ) :   1.0708
B( 14-C , 15-H ) :   0.9442 B( 14-C , 16-H ) :   0.9442 B( 14-C , 17-C ) :   1.1064
B( 17-C , 18-H ) :   0.9657 B( 17-C , 19-H ) :   0.9657 B( 17-C , 34-H ) :   0.9613
B( 20-C , 21-H ) :   0.8982 B( 20-C , 22-H ) :   0.8982 B( 20-C , 23-C ) :   1.1005
B( 23-C , 24-H ) :   0.9301 B( 23-C , 25-H ) :   0.9297 B( 23-C , 26-C ) :   1.0761
B( 26-C , 27-H ) :   0.9412 B( 26-C , 28-H ) :   0.9412 B( 26-C , 29-C ) :   1.1059
B( 29-C , 30-H ) :   0.9662 B( 29-C , 31-H ) :   0.9662 B( 29-C , 35-H ) :   0.9618
B( 32-C , 33-H ) :   1.1163

FINAL SINGLE POINT ENERGY      -621.859831337495

DIPOLE MOMENT
-------------
                                X             Y             Z
Electronic contribution:     -4.83045       2.15052      -0.05958
Nuclear contribution   :      4.97690      -2.15001       0.06175
                        -----------------------------------------
Total Dipole Moment    :      0.14645       0.00051       0.00217
                        -----------------------------------------
Magnitude (a.u.)       :      0.14647
Magnitude (Debye)      :      0.37230

Rotational constants in cm-1:     0.039573     0.005999     0.005245
Rotational constants in MHz :  1186.357256   179.855377   157.247625

CHEMICAL SHIELDING SUMMARY (ppm)  --  Orbital contribution
----------------------------------------------------------

  Nucleus  Element    Isotropic     Anisotropy
  -------  -------  ------------   ------------
      7       H           53.668         32.657
      8       H           38.942         32.869
     10       H           24.491          8.974
     12       H           64.516         11.756
     13       H           64.655         11.679
     15       H           18.506         17.686
     16       H           18.341         17.691
     18       H           17.370         13.599
     19       H           17.288         13.636
     21       H           54.770         25.553
     22       H           54.975         25.367
     24       H           63.674         11.701
     25       H           63.194         11.758
     27       H           25.778         17.647
     28       H           26.128         17.529
     30       H           15.316         14.031
     31       H           15.732         13.940
     33       H          -39.316        -43.409
     34       H          -74.259         13.351
     35       H          -67.463         18.026
     36       H           26.557         42.326

                             ****ORCA TERMINATED NORMALLY****
TOTAL RUN TIME: 0 days 0 hours 24 minutes 30 seconds 615 msec
