                         Program Version 5.0.4 -  RELEASE  -
|  1> ! B3LYP cc-pVDZ AUTOAUX
|  2> %pal nprocs 16 end
|  3> *XYZFile 0 2 opt_cc-pVDZ.xyz
|  4> %EPRNMR
|  5>         GTENSOR   TRUE
|  6>         NUCLEI    = ALL H {SHIFT, AISO, ADIP, AORB}
|  7>         ORI       CenterOfElCharge
|  8> END
|  9>
| 10>                          ****END OF INPUT****

CARTESIAN COORDINATES (ANGSTROEM)
---------------------------------
  C     -2.933965   -0.019156   -0.033968
  C      1.296444    0.061824    0.040566
  C      0.590322    1.299161    0.022548
  C     -0.830039    1.218699   -0.002568
  C     -1.498847   -0.010865   -0.008782
  C     -0.774122   -1.238368    0.009788
  C      0.629525   -1.156383    0.034189
  H     -1.427048    2.131305   -0.017267
  H      1.218575   -2.074536    0.048583
  C      1.286379    2.535197    0.030201
  H      2.380650    2.491770    0.051082
  C      0.640532    3.887507    0.012493
  H     -0.012376    3.983662   -0.880092
  H     -0.049999    3.988622    0.875732
  C      1.643345    5.048380    0.030876
  H      2.282617    4.957558    0.928191
  H      2.320901    4.952811   -0.837413
  C      0.972750    6.423267    0.012627
  H      0.314169    6.559669    0.887828
  H      0.351814    6.554369   -0.890468
  C     -1.524725   -2.554079    0.003958
  H     -2.212077   -2.565707    0.870720
  H     -2.195078   -2.567781   -0.875816
  C     -0.682422   -3.832632    0.013830
  H     -0.007492   -3.844979   -0.861979
  H     -0.029847   -3.846602    0.906400
  C     -1.540410   -5.103659    0.002474
  H     -2.218502   -5.092318    0.875946
  H     -2.195501   -5.092127   -0.888376
  C     -0.711859   -6.390673    0.013110
  H     -0.072869   -6.448665    0.911291
  H     -0.048487   -6.447504   -0.867274
  C     -4.149537   -0.021067   -0.056637
  H     -5.221657   -0.018204   -0.079579
  H      1.717527    7.235284    0.026000
  H     -1.354931   -7.285723    0.003734
  H      2.389642    0.078813    0.059985

 Total Charge           Charge          ....    0
 Multiplicity           Mult            ....    2
 Number of Electrons    NEL             ....  117
 Basis Dimension        Dim             ....  329

ORBITAL ENERGIES
----------------
                 SPIN UP ORBITALS
  NO   OCC          E(Eh)            E(eV)
   0   1.0000     -10.207354      -277.7562
   1   1.0000     -10.199201      -277.5344
   2   1.0000     -10.192062      -277.3401
   3   1.0000     -10.191465      -277.3239
   4   1.0000     -10.190763      -277.3048
   5   1.0000     -10.189394      -277.2675
   6   1.0000     -10.188402      -277.2405
   7   1.0000     -10.187107      -277.2053
   8   1.0000     -10.184300      -277.1289
   9   1.0000     -10.184215      -277.1266
  10   1.0000     -10.184007      -277.1209
  11   1.0000     -10.182591      -277.0824
  12   1.0000     -10.180736      -277.0319
  13   1.0000     -10.180544      -277.0267
  14   1.0000     -10.176974      -276.9295
  15   1.0000     -10.175119      -276.8791
  16   1.0000      -0.865757       -23.5584
  17   1.0000      -0.814448       -22.1622
  18   1.0000      -0.794860       -21.6292
  19   1.0000      -0.780034       -21.2258
  20   1.0000      -0.763600       -20.7786
  21   1.0000      -0.730560       -19.8796
  22   1.0000      -0.723530       -19.6883
  23   1.0000      -0.696231       -18.9454
  24   1.0000      -0.653557       -17.7842
  25   1.0000      -0.622603       -16.9419
  26   1.0000      -0.612892       -16.6777
  27   1.0000      -0.588277       -16.0078
  28   1.0000      -0.578689       -15.7469
  29   1.0000      -0.559126       -15.2146
  30   1.0000      -0.525793       -14.3075
  31   1.0000      -0.494632       -13.4596
  32   1.0000      -0.472584       -12.8597
  33   1.0000      -0.469142       -12.7660
  34   1.0000      -0.462227       -12.5778
  35   1.0000      -0.461711       -12.5638
  36   1.0000      -0.428534       -11.6610
  37   1.0000      -0.426129       -11.5956
  38   1.0000      -0.422479       -11.4962
  39   1.0000      -0.419435       -11.4134
  40   1.0000      -0.410226       -11.1628
  41   1.0000      -0.395357       -10.7582
  42   1.0000      -0.387695       -10.5497
  43   1.0000      -0.375282       -10.2120
  44   1.0000      -0.374360       -10.1869
  45   1.0000      -0.362846        -9.8735
  46   1.0000      -0.348031        -9.4704
  47   1.0000      -0.347618        -9.4592
  48   1.0000      -0.338188        -9.2026
  49   1.0000      -0.331277        -9.0145
  50   1.0000      -0.330506        -8.9935
  51   1.0000      -0.324921        -8.8416
  52   1.0000      -0.322457        -8.7745
  53   1.0000      -0.321192        -8.7401
  54   1.0000      -0.307959        -8.3800
  55   1.0000      -0.271974        -7.4008
  56   1.0000      -0.267897        -7.2899
  57   1.0000      -0.236250        -6.4287
  58   1.0000      -0.171288        -4.6610
  59   0.0000      -0.031425        -0.8551
  60   0.0000       0.015239         0.4147
  61   0.0000       0.048171         1.3108
  62   0.0000       0.063217         1.7202
  63   0.0000       0.063825         1.7368

                 SPIN DOWN ORBITALS
  NO   OCC          E(Eh)            E(eV)
   0   1.0000     -10.208879      -277.7977
   1   1.0000     -10.195667      -277.4382
   2   1.0000     -10.194378      -277.4031
   3   1.0000     -10.188033      -277.2305
   4   1.0000     -10.187828      -277.2249
   5   1.0000     -10.187632      -277.2196
   6   1.0000     -10.186312      -277.1836
   7   1.0000     -10.185723      -277.1676
   8   1.0000     -10.184425      -277.1323
   9   1.0000     -10.183964      -277.1197
  10   1.0000     -10.183167      -277.0981
  11   1.0000     -10.181028      -277.0399
  12   1.0000     -10.180736      -277.0319
  13   1.0000     -10.180542      -277.0266
  14   1.0000     -10.176982      -276.9297
  15   1.0000     -10.175121      -276.8791
  16   1.0000      -0.862259       -23.4633
  17   1.0000      -0.808575       -22.0024
  18   1.0000      -0.793260       -21.5857
  19   1.0000      -0.779328       -21.2066
  20   1.0000      -0.761420       -20.7193
  21   1.0000      -0.726440       -19.7674
  22   1.0000      -0.721463       -19.6320
  23   1.0000      -0.693927       -18.8827
  24   1.0000      -0.650405       -17.6984
  25   1.0000      -0.619928       -16.8691
  26   1.0000      -0.607265       -16.5245
  27   1.0000      -0.587173       -15.9778
  28   1.0000      -0.576495       -15.6872
  29   1.0000      -0.556468       -15.1423
  30   1.0000      -0.524096       -14.2614
  31   1.0000      -0.492227       -13.3942
  32   1.0000      -0.470469       -12.8021
  33   1.0000      -0.468322       -12.7437
  34   1.0000      -0.460391       -12.5279
  35   1.0000      -0.458221       -12.4688
  36   1.0000      -0.426232       -11.5984
  37   1.0000      -0.424982       -11.5644
  38   1.0000      -0.421509       -11.4698
  39   1.0000      -0.416937       -11.3454
  40   1.0000      -0.409728       -11.1493
  41   1.0000      -0.387509       -10.5447
  42   1.0000      -0.386436       -10.5154
  43   1.0000      -0.372204       -10.1282
  44   1.0000      -0.370762       -10.0889
  45   1.0000      -0.361828        -9.8458
  46   1.0000      -0.346587        -9.4311
  47   1.0000      -0.344980        -9.3874
  48   1.0000      -0.336101        -9.1458
  49   1.0000      -0.330628        -8.9968
  50   1.0000      -0.328517        -8.9394
  51   1.0000      -0.324416        -8.8278
  52   1.0000      -0.321878        -8.7587
  53   1.0000      -0.320279        -8.7152
  54   1.0000      -0.305560        -8.3147
  55   1.0000      -0.271889        -7.3985
  56   1.0000      -0.252758        -6.8779
  57   1.0000      -0.228026        -6.2049
  58   0.0000      -0.074564        -2.0290
  59   0.0000      -0.022332        -0.6077
  60   0.0000       0.033062         0.8997
  61   0.0000       0.048596         1.3224
  62   0.0000       0.063803         1.7362

MULLIKEN ATOMIC CHARGES AND SPIN POPULATIONS
--------------------------------------------
   0 C :    0.619811    0.027174
   1 C :    0.027327    0.218182
   2 C :    0.084720   -0.160669
   3 C :   -0.003476    0.222993
   4 C :   -0.042971   -0.104302
   5 C :   -0.085369    0.241256
   6 C :    0.026639   -0.113554
   7 H :   -0.052869   -0.009489
   8 H :   -0.043188    0.004243
   9 C :   -0.073418    0.737342
  10 H :   -0.038021   -0.032287
  11 C :    0.029282   -0.050505
  12 H :    0.027964    0.033384
  13 H :    0.028030    0.033254
  14 C :   -0.040639    0.002297
  15 H :    0.011596    0.000548
  16 H :    0.011596    0.000531
  17 C :    0.003456   -0.000200
  18 H :    0.017859    0.000165
  19 H :    0.017890    0.000165
  20 C :    0.042957   -0.019284
  21 H :    0.031047    0.010467
  22 H :    0.030919    0.010227
  23 C :   -0.035016    0.000878
  24 H :    0.014198    0.000171
  25 H :    0.014373    0.000151
  26 C :   -0.025347    0.000018
  27 H :    0.006025    0.000054
  28 H :    0.006036    0.000055
  29 C :    0.002979   -0.000083
  30 H :    0.016507    0.000024
  31 H :    0.016532    0.000023
  32 C :   -0.593774   -0.045277
  33 H :   -0.030710    0.001797
  34 H :    0.013193   -0.000212
  35 H :    0.012660   -0.000006
  36 H :   -0.048800   -0.009531
Sum of atomic charges         :   -0.0000000

LOEWDIN ATOMIC CHARGES AND SPIN POPULATIONS
-------------------------------------------
   0 C :   -0.000155    0.012832
   1 C :   -0.005487    0.167767
   2 C :   -0.054978   -0.067726
   3 C :    0.006897    0.170481
   4 C :   -0.057469   -0.054771
   5 C :   -0.003341    0.180290
   6 C :   -0.033550   -0.062700
   7 H :    0.027070    0.000859
   8 H :    0.026699   -0.000450
   9 C :    0.002773    0.606898
  10 H :    0.016457    0.002965
  11 C :   -0.055727    0.005888
  12 H :    0.034056    0.026094
  13 H :    0.034032    0.025979
  14 C :   -0.046297    0.001291
  15 H :    0.025038    0.000346
  16 H :    0.025025    0.000336
  17 C :   -0.067650   -0.000033
  18 H :    0.025697    0.000266
  19 H :    0.025699    0.000266
  20 C :   -0.036353    0.002269
  21 H :    0.039291    0.008245
  22 H :    0.039218    0.008061
  23 C :   -0.043777    0.000151
  24 H :    0.023531    0.000056
  25 H :    0.023497    0.000050
  26 C :   -0.047103    0.000012
  27 H :    0.024163    0.000092
  28 H :    0.024165    0.000091
  29 C :   -0.067914   -0.000040
  30 H :    0.024894    0.000016
  31 H :    0.024907    0.000016
  32 C :   -0.055328   -0.035754
  33 H :    0.021778   -0.000066
  34 H :    0.028099   -0.000115
  35 H :    0.027405   -0.000007
  36 H :    0.024739    0.000044

  Mayer bond orders larger than 0.100000
B(  0-C ,  4-C ) :   0.9026 B(  0-C , 32-C ) :   2.1442 B(  1-C ,  2-C ) :   1.2936
B(  1-C ,  6-C ) :   1.4707 B(  1-C , 36-H ) :   0.9316 B(  2-C ,  3-C ) :   1.3035
B(  2-C ,  9-C ) :   1.3057 B(  3-C ,  4-C ) :   1.4467 B(  3-C ,  7-H ) :   0.9258
B(  4-C ,  5-C ) :   1.3647 B(  5-C ,  6-C ) :   1.4100 B(  5-C , 20-C ) :   1.0922
B(  6-C ,  8-H ) :   0.9184 B(  9-C , 10-H ) :   0.9302 B(  9-C , 11-C ) :   1.0818
B( 11-C , 12-H ) :   0.9135 B( 11-C , 13-H ) :   0.9134 B( 11-C , 14-C ) :   1.0708
B( 14-C , 15-H ) :   0.9442 B( 14-C , 16-H ) :   0.9442 B( 14-C , 17-C ) :   1.1064
B( 17-C , 18-H ) :   0.9657 B( 17-C , 19-H ) :   0.9657 B( 17-C , 34-H ) :   0.9614
B( 20-C , 21-H ) :   0.8981 B( 20-C , 22-H ) :   0.8982 B( 20-C , 23-C ) :   1.1005
B( 23-C , 24-H ) :   0.9301 B( 23-C , 25-H ) :   0.9297 B( 23-C , 26-C ) :   1.0761
B( 26-C , 27-H ) :   0.9412 B( 26-C , 28-H ) :   0.9412 B( 26-C , 29-C ) :   1.1059
B( 29-C , 30-H ) :   0.9662 B( 29-C , 31-H ) :   0.9662 B( 29-C , 35-H ) :   0.9618
B( 32-C , 33-H ) :   1.1163

FINAL SINGLE POINT ENERGY      -621.859832040371

DIPOLE MOMENT
-------------
                                X             Y             Z
Electronic contribution:     -4.82917       2.14993      -0.06852
Nuclear contribution   :      4.97546      -2.14942       0.07061
                        -----------------------------------------
Total Dipole Moment    :      0.14629       0.00051       0.00209
                        -----------------------------------------
Magnitude (a.u.)       :      0.14631
Magnitude (Debye)      :      0.37188

Rotational constants in cm-1:     0.039578     0.005999     0.005245
Rotational constants in MHz :  1186.530519   179.842538   157.240716

CHEMICAL SHIELDING SUMMARY (ppm)  --  Orbital contribution
----------------------------------------------------------

  Nucleus  Element    Isotropic     Anisotropy
  -------  -------  ------------   ------------
      7       H           53.667         32.660
      8       H           38.938         32.875
     10       H           24.498          8.974
     12       H           64.464         11.774
     13       H           64.698         11.662
     15       H           18.565         17.673
     16       H           18.299         17.699
     18       H           17.407         13.586
     19       H           17.226         13.655
     21       H           54.807         25.539
     22       H           54.960         25.378
     24       H           63.608         11.712
     25       H           63.209         11.753
     27       H           25.851         17.625
     28       H           26.131         17.532
     30       H           15.328         14.026
     31       H           15.676         13.955
     33       H          -39.313        -43.454
     34       H          -74.259         13.361
     35       H          -67.447         18.056
     36       H           26.556         42.320

                             ****ORCA TERMINATED NORMALLY****
TOTAL RUN TIME: 0 days 0 hours 24 minutes 12 seconds 592 msec
