                         Program Version 5.0.4 -  RELEASE  -
|  1> ! B3LYP cc-pVDZ AUTOAUX
|  2> %pal nprocs 16 end
|  3> *XYZFile 0 2 opt.xyz
|  4> %EPRNMR
|  5>         GTENSOR   TRUE
|  6>         NUCLEI    = ALL H {SHIFT, AISO, ADIP, AORB}
|  7>         ORI       GIAO
|  8> END
|  9>
| 10>                          ****END OF INPUT****

CARTESIAN COORDINATES (ANGSTROEM)
---------------------------------
  C     -2.934073   -0.018766   -0.033821
  C      1.296326    0.061617    0.042355
  C      0.590316    1.299012    0.023646
  C     -0.830012    1.218758   -0.002083
  C     -1.498941   -0.010710   -0.008376
  C     -0.774370   -1.238300    0.010896
  C      0.629305   -1.156514    0.035978
  H     -1.426643    2.131592   -0.017243
  H      1.218068   -2.074806    0.050925
  C      1.286599    2.534948    0.031266
  H      2.380846    2.491530    0.052874
  C      0.640774    3.887237    0.012787
  H     -0.012358    3.982869   -0.879700
  H     -0.049610    3.989014    0.876092
  C      1.643397    5.048244    0.030137
  H      2.282865    4.958144    0.927400
  H      2.320748    4.952086   -0.838264
  C      0.972655    6.422996    0.011073
  H      0.314265    6.559972    0.886339
  H      0.351320    6.553366   -0.891860
  C     -1.525236   -2.553953    0.005144
  H     -2.211934   -2.565966    0.872443
  H     -2.196235   -2.567265   -0.874138
  C     -0.682959   -3.832515    0.013733
  H     -0.008492   -3.844031   -0.862466
  H     -0.029866   -3.846912    0.905937
  C     -1.540346   -5.103812    0.002012
  H     -2.217942   -5.093520    0.875899
  H     -2.195918   -5.092106   -0.888500
  C     -0.711165   -6.390340    0.011269
  H     -0.071581   -6.448752    0.909014
  H     -0.048195   -6.446330   -0.869486
  C     -4.149637   -0.020449   -0.056778
  H     -5.221734   -0.017269   -0.080213
  H      1.717399    7.235047    0.023638
  H     -1.353742   -7.285750    0.001613
  H      2.389514    0.078501    0.062394

 Total Charge           Charge          ....    0
 Multiplicity           Mult            ....    2
 Number of Electrons    NEL             ....  117
 Basis Dimension        Dim             ....  329

ORBITAL ENERGIES
----------------
                 SPIN UP ORBITALS
  NO   OCC          E(Eh)            E(eV)
   0   1.0000     -10.207393      -277.7573
   1   1.0000     -10.199199      -277.5343
   2   1.0000     -10.192017      -277.3389
   3   1.0000     -10.191435      -277.3231
   4   1.0000     -10.190778      -277.3052
   5   1.0000     -10.189331      -277.2658
   6   1.0000     -10.188426      -277.2412
   7   1.0000     -10.187091      -277.2048
   8   1.0000     -10.184287      -277.1285
   9   1.0000     -10.184211      -277.1265
  10   1.0000     -10.183998      -277.1207
  11   1.0000     -10.182610      -277.0829
  12   1.0000     -10.180731      -277.0318
  13   1.0000     -10.180521      -277.0261
  14   1.0000     -10.176972      -276.9295
  15   1.0000     -10.175106      -276.8787
  16   1.0000      -0.865752       -23.5583
  17   1.0000      -0.814438       -22.1620
  18   1.0000      -0.794865       -21.6294
  19   1.0000      -0.780034       -21.2258
  20   1.0000      -0.763604       -20.7787
  21   1.0000      -0.730559       -19.8795
  22   1.0000      -0.723543       -19.6886
  23   1.0000      -0.696225       -18.9453
  24   1.0000      -0.653545       -17.7839
  25   1.0000      -0.622607       -16.9420
  26   1.0000      -0.612888       -16.6775
  27   1.0000      -0.588274       -16.0078
  28   1.0000      -0.578673       -15.7465
  29   1.0000      -0.559113       -15.2142
  30   1.0000      -0.525803       -14.3078
  31   1.0000      -0.494640       -13.4598
  32   1.0000      -0.472569       -12.8592
  33   1.0000      -0.469141       -12.7660
  34   1.0000      -0.462228       -12.5779
  35   1.0000      -0.461709       -12.5637
  36   1.0000      -0.428523       -11.6607
  37   1.0000      -0.426133       -11.5957
  38   1.0000      -0.422487       -11.4965
  39   1.0000      -0.419432       -11.4133
  40   1.0000      -0.410232       -11.1630
  41   1.0000      -0.395343       -10.7578
  42   1.0000      -0.387689       -10.5495
  43   1.0000      -0.375293       -10.2122
  44   1.0000      -0.374348       -10.1865
  45   1.0000      -0.362848        -9.8736
  46   1.0000      -0.348021        -9.4701
  47   1.0000      -0.347617        -9.4591
  48   1.0000      -0.338180        -9.2023
  49   1.0000      -0.331267        -9.0142
  50   1.0000      -0.330496        -8.9933
  51   1.0000      -0.324916        -8.8414
  52   1.0000      -0.322439        -8.7740
  53   1.0000      -0.321186        -8.7399
  54   1.0000      -0.307956        -8.3799
  55   1.0000      -0.271989        -7.4012
  56   1.0000      -0.267886        -7.2896
  57   1.0000      -0.236259        -6.4289
  58   1.0000      -0.171283        -4.6608
  59   0.0000      -0.031426        -0.8552
  60   0.0000       0.015246         0.4149
  61   0.0000       0.048164         1.3106
  62   0.0000       0.063216         1.7202
  63   0.0000       0.063829         1.7369

                 SPIN DOWN ORBITALS
  NO   OCC          E(Eh)            E(eV)
   0   1.0000     -10.208916      -277.7987
   1   1.0000     -10.195672      -277.4383
   2   1.0000     -10.194329      -277.4018
   3   1.0000     -10.188062      -277.2313
   4   1.0000     -10.187813      -277.2245
   5   1.0000     -10.187651      -277.2201
   6   1.0000     -10.186263      -277.1823
   7   1.0000     -10.185696      -277.1669
   8   1.0000     -10.184421      -277.1322
   9   1.0000     -10.183955      -277.1195
  10   1.0000     -10.183180      -277.0984
  11   1.0000     -10.180996      -277.0390
  12   1.0000     -10.180731      -277.0318
  13   1.0000     -10.180519      -277.0260
  14   1.0000     -10.176980      -276.9297
  15   1.0000     -10.175108      -276.8788
  16   1.0000      -0.862257       -23.4632
  17   1.0000      -0.808567       -22.0022
  18   1.0000      -0.793266       -21.5859
  19   1.0000      -0.779330       -21.2067
  20   1.0000      -0.761426       -20.7194
  21   1.0000      -0.726438       -19.7674
  22   1.0000      -0.721473       -19.6323
  23   1.0000      -0.693921       -18.8825
  24   1.0000      -0.650393       -17.6981
  25   1.0000      -0.619930       -16.8691
  26   1.0000      -0.607261       -16.5244
  27   1.0000      -0.587171       -15.9777
  28   1.0000      -0.576477       -15.6867
  29   1.0000      -0.556456       -15.1419
  30   1.0000      -0.524103       -14.2616
  31   1.0000      -0.492235       -13.3944
  32   1.0000      -0.470455       -12.8017
  33   1.0000      -0.468321       -12.7437
  34   1.0000      -0.460395       -12.5280
  35   1.0000      -0.458219       -12.4688
  36   1.0000      -0.426228       -11.5983
  37   1.0000      -0.424982       -11.5643
  38   1.0000      -0.421515       -11.4700
  39   1.0000      -0.416937       -11.3454
  40   1.0000      -0.409734       -11.1494
  41   1.0000      -0.387492       -10.5442
  42   1.0000      -0.386430       -10.5153
  43   1.0000      -0.372213       -10.1284
  44   1.0000      -0.370753       -10.0887
  45   1.0000      -0.361831        -9.8459
  46   1.0000      -0.346587        -9.4311
  47   1.0000      -0.344973        -9.3872
  48   1.0000      -0.336092        -9.1455
  49   1.0000      -0.330618        -8.9966
  50   1.0000      -0.328506        -8.9391
  51   1.0000      -0.324411        -8.8277
  52   1.0000      -0.321859        -8.7582
  53   1.0000      -0.320275        -8.7151
  54   1.0000      -0.305559        -8.3147
  55   1.0000      -0.271902        -7.3988
  56   1.0000      -0.252751        -6.8777
  57   1.0000      -0.228031        -6.2050
  58   0.0000      -0.074550        -2.0286
  59   0.0000      -0.022331        -0.6076
  60   0.0000       0.033063         0.8997
  61   0.0000       0.048589         1.3222
  62   0.0000       0.063805         1.7362

MULLIKEN ATOMIC CHARGES AND SPIN POPULATIONS
--------------------------------------------
   0 C :    0.619804    0.026881
   1 C :    0.027416    0.218104
   2 C :    0.084740   -0.160641
   3 C :   -0.003482    0.222938
   4 C :   -0.042984   -0.104170
   5 C :   -0.085399    0.241076
   6 C :    0.026663   -0.113471
   7 H :   -0.052866   -0.009483
   8 H :   -0.043204    0.004240
   9 C :   -0.073378    0.737448
  10 H :   -0.038030   -0.032303
  11 C :    0.029226   -0.050532
  12 H :    0.027957    0.033381
  13 H :    0.028021    0.033277
  14 C :   -0.040615    0.002301
  15 H :    0.011597    0.000545
  16 H :    0.011589    0.000533
  17 C :    0.003461   -0.000200
  18 H :    0.017857    0.000165
  19 H :    0.017881    0.000165
  20 C :    0.042996   -0.019244
  21 H :    0.031041    0.010465
  22 H :    0.030907    0.010213
  23 C :   -0.035049    0.000874
  24 H :    0.014172    0.000171
  25 H :    0.014385    0.000150
  26 C :   -0.025288    0.000018
  27 H :    0.006025    0.000054
  28 H :    0.006036    0.000055
  29 C :    0.002967   -0.000083
  30 H :    0.016496    0.000024
  31 H :    0.016519    0.000023
  32 C :   -0.593776   -0.045011
  33 H :   -0.030711    0.001777
  34 H :    0.013195   -0.000212
  35 H :    0.012651   -0.000006
  36 H :   -0.048818   -0.009523
Sum of atomic charges         :    0.0000000

LOEWDIN ATOMIC CHARGES AND SPIN POPULATIONS
-------------------------------------------
   0 C :   -0.000163    0.012686
   1 C :   -0.005432    0.167723
   2 C :   -0.054932   -0.067724
   3 C :    0.006867    0.170448
   4 C :   -0.057506   -0.054734
   5 C :   -0.003311    0.180189
   6 C :   -0.033547   -0.062665
   7 H :    0.027072    0.000862
   8 H :    0.026689   -0.000451
   9 C :    0.002799    0.606983
  10 H :    0.016450    0.002961
  11 C :   -0.055749    0.005881
  12 H :    0.034050    0.026088
  13 H :    0.034031    0.025997
  14 C :   -0.046307    0.001292
  15 H :    0.025040    0.000344
  16 H :    0.025027    0.000337
  17 C :   -0.067648   -0.000034
  18 H :    0.025699    0.000266
  19 H :    0.025699    0.000267
  20 C :   -0.036345    0.002276
  21 H :    0.039286    0.008245
  22 H :    0.039204    0.008050
  23 C :   -0.043794    0.000150
  24 H :    0.023542    0.000056
  25 H :    0.023493    0.000050
  26 C :   -0.047125    0.000012
  27 H :    0.024170    0.000091
  28 H :    0.024172    0.000091
  29 C :   -0.067907   -0.000040
  30 H :    0.024892    0.000016
  31 H :    0.024909    0.000016
  32 C :   -0.055335   -0.035584
  33 H :    0.021776   -0.000073
  34 H :    0.028100   -0.000115
  35 H :    0.027404   -0.000007
  36 H :    0.024731    0.000047

  Mayer bond orders larger than 0.100000
B(  0-C ,  4-C ) :   0.9026 B(  0-C , 32-C ) :   2.1442 B(  1-C ,  2-C ) :   1.2936
B(  1-C ,  6-C ) :   1.4707 B(  1-C , 36-H ) :   0.9316 B(  2-C ,  3-C ) :   1.3036
B(  2-C ,  9-C ) :   1.3056 B(  3-C ,  4-C ) :   1.4466 B(  3-C ,  7-H ) :   0.9258
B(  4-C ,  5-C ) :   1.3647 B(  5-C ,  6-C ) :   1.4100 B(  5-C , 20-C ) :   1.0922
B(  6-C ,  8-H ) :   0.9184 B(  9-C , 10-H ) :   0.9302 B(  9-C , 11-C ) :   1.0818
B( 11-C , 12-H ) :   0.9135 B( 11-C , 13-H ) :   0.9134 B( 11-C , 14-C ) :   1.0708
B( 14-C , 15-H ) :   0.9442 B( 14-C , 16-H ) :   0.9442 B( 14-C , 17-C ) :   1.1064
B( 17-C , 18-H ) :   0.9657 B( 17-C , 19-H ) :   0.9657 B( 17-C , 34-H ) :   0.9613
B( 20-C , 21-H ) :   0.8982 B( 20-C , 22-H ) :   0.8982 B( 20-C , 23-C ) :   1.1005
B( 23-C , 24-H ) :   0.9301 B( 23-C , 25-H ) :   0.9297 B( 23-C , 26-C ) :   1.0761
B( 26-C , 27-H ) :   0.9412 B( 26-C , 28-H ) :   0.9412 B( 26-C , 29-C ) :   1.1059
B( 29-C , 30-H ) :   0.9662 B( 29-C , 31-H ) :   0.9662 B( 29-C , 35-H ) :   0.9618
B( 32-C , 33-H ) :   1.1163

FINAL SINGLE POINT ENERGY      -621.859832360360

DIPOLE MOMENT
-------------
                                X             Y             Z
Electronic contribution:     -4.83015       2.15049      -0.05957
Nuclear contribution   :      4.97690      -2.15001       0.06175
                        -----------------------------------------
Total Dipole Moment    :      0.14676       0.00048       0.00218
                        -----------------------------------------
Magnitude (a.u.)       :      0.14677
Magnitude (Debye)      :      0.37307

Rotational constants in cm-1:     0.039573     0.005999     0.005245
Rotational constants in MHz :  1186.357256   179.855377   157.247625

CHEMICAL SHIELDING SUMMARY (ppm)  --  Orbital contribution
----------------------------------------------------------

  Nucleus  Element    Isotropic     Anisotropy
  -------  -------  ------------   ------------
      7       H           24.378         11.169
      8       H           24.673          9.808
     10       H           26.199          8.389
     12       H           28.984          4.271
     13       H           28.981          4.276
     15       H           29.755          6.790
     16       H           29.754          6.798
     18       H           30.342          7.769
     19       H           30.343          7.766
     21       H           28.692          5.498
     22       H           28.682          5.652
     24       H           29.874          4.768
     25       H           29.861          4.799
     27       H           29.920          6.344
     28       H           29.921          6.354
     30       H           30.349          7.938
     31       H           30.350          7.927
     33       H           28.342         10.739
     34       H           30.130          9.927
     35       H           30.129         10.096
     36       H           24.788          7.003

                             ****ORCA TERMINATED NORMALLY****
TOTAL RUN TIME: 0 days 0 hours 24 minutes 59 seconds 131 msec
