                         Program Version 5.0.4 -  RELEASE  -
|  1> ! B3LYP cc-pVDZ AUTOAUX
|  2> %pal nprocs 16 end
|  3> *XYZFile 0 2 opt_cc-pVDZ.xyz
|  4> %EPRNMR
|  5>         GTENSOR   TRUE
|  6>         NUCLEI    = ALL H {SHIFT, AISO, ADIP, AORB}
|  7>         ORI       GIAO
|  8> END
|  9>
| 10>                          ****END OF INPUT****

CARTESIAN COORDINATES (ANGSTROEM)
---------------------------------
  C     -2.933965   -0.019156   -0.033968
  C      1.296444    0.061824    0.040566
  C      0.590322    1.299161    0.022548
  C     -0.830039    1.218699   -0.002568
  C     -1.498847   -0.010865   -0.008782
  C     -0.774122   -1.238368    0.009788
  C      0.629525   -1.156383    0.034189
  H     -1.427048    2.131305   -0.017267
  H      1.218575   -2.074536    0.048583
  C      1.286379    2.535197    0.030201
  H      2.380650    2.491770    0.051082
  C      0.640532    3.887507    0.012493
  H     -0.012376    3.983662   -0.880092
  H     -0.049999    3.988622    0.875732
  C      1.643345    5.048380    0.030876
  H      2.282617    4.957558    0.928191
  H      2.320901    4.952811   -0.837413
  C      0.972750    6.423267    0.012627
  H      0.314169    6.559669    0.887828
  H      0.351814    6.554369   -0.890468
  C     -1.524725   -2.554079    0.003958
  H     -2.212077   -2.565707    0.870720
  H     -2.195078   -2.567781   -0.875816
  C     -0.682422   -3.832632    0.013830
  H     -0.007492   -3.844979   -0.861979
  H     -0.029847   -3.846602    0.906400
  C     -1.540410   -5.103659    0.002474
  H     -2.218502   -5.092318    0.875946
  H     -2.195501   -5.092127   -0.888376
  C     -0.711859   -6.390673    0.013110
  H     -0.072869   -6.448665    0.911291
  H     -0.048487   -6.447504   -0.867274
  C     -4.149537   -0.021067   -0.056637
  H     -5.221657   -0.018204   -0.079579
  H      1.717527    7.235284    0.026000
  H     -1.354931   -7.285723    0.003734
  H      2.389642    0.078813    0.059985

 Total Charge           Charge          ....    0
 Multiplicity           Mult            ....    2
 Number of Electrons    NEL             ....  117
 Basis Dimension        Dim             ....  329

ORBITAL ENERGIES
----------------
                 SPIN UP ORBITALS
  NO   OCC          E(Eh)            E(eV)
   0   1.0000     -10.207399      -277.7575
   1   1.0000     -10.199204      -277.5344
   2   1.0000     -10.192018      -277.3389
   3   1.0000     -10.191440      -277.3232
   4   1.0000     -10.190778      -277.3052
   5   1.0000     -10.189321      -277.2655
   6   1.0000     -10.188431      -277.2413
   7   1.0000     -10.187111      -277.2054
   8   1.0000     -10.184280      -277.1284
   9   1.0000     -10.184223      -277.1268
  10   1.0000     -10.184006      -277.1209
  11   1.0000     -10.182605      -277.0828
  12   1.0000     -10.180728      -277.0317
  13   1.0000     -10.180533      -277.0264
  14   1.0000     -10.176973      -276.9295
  15   1.0000     -10.175109      -276.8788
  16   1.0000      -0.865753       -23.5583
  17   1.0000      -0.814442       -22.1621
  18   1.0000      -0.794859       -21.6292
  19   1.0000      -0.780033       -21.2258
  20   1.0000      -0.763597       -20.7785
  21   1.0000      -0.730554       -19.8794
  22   1.0000      -0.723537       -19.6885
  23   1.0000      -0.696228       -18.9453
  24   1.0000      -0.653553       -17.7841
  25   1.0000      -0.622603       -16.9419
  26   1.0000      -0.612886       -16.6775
  27   1.0000      -0.588276       -16.0078
  28   1.0000      -0.578686       -15.7469
  29   1.0000      -0.559123       -15.2145
  30   1.0000      -0.525796       -14.3076
  31   1.0000      -0.494632       -13.4596
  32   1.0000      -0.472576       -12.8594
  33   1.0000      -0.469141       -12.7660
  34   1.0000      -0.462223       -12.5777
  35   1.0000      -0.461711       -12.5638
  36   1.0000      -0.428528       -11.6609
  37   1.0000      -0.426125       -11.5955
  38   1.0000      -0.422476       -11.4962
  39   1.0000      -0.419436       -11.4134
  40   1.0000      -0.410224       -11.1628
  41   1.0000      -0.395354       -10.7581
  42   1.0000      -0.387688       -10.5495
  43   1.0000      -0.375278       -10.2118
  44   1.0000      -0.374360       -10.1868
  45   1.0000      -0.362843        -9.8735
  46   1.0000      -0.348028        -9.4703
  47   1.0000      -0.347612        -9.4590
  48   1.0000      -0.338182        -9.2024
  49   1.0000      -0.331275        -9.0144
  50   1.0000      -0.330506        -8.9935
  51   1.0000      -0.324918        -8.8415
  52   1.0000      -0.322455        -8.7744
  53   1.0000      -0.321189        -8.7400
  54   1.0000      -0.307961        -8.3800
  55   1.0000      -0.271987        -7.4012
  56   1.0000      -0.267889        -7.2896
  57   1.0000      -0.236253        -6.4288
  58   1.0000      -0.171279        -4.6607
  59   0.0000      -0.031427        -0.8552
  60   0.0000       0.015248         0.4149
  61   0.0000       0.048161         1.3105
  62   0.0000       0.063217         1.7202
  63   0.0000       0.063824         1.7367

                 SPIN DOWN ORBITALS
  NO   OCC          E(Eh)            E(eV)
   0   1.0000     -10.208924      -277.7989
   1   1.0000     -10.195671      -277.4383
   2   1.0000     -10.194330      -277.4018
   3   1.0000     -10.188062      -277.2313
   4   1.0000     -10.187832      -277.2250
   5   1.0000     -10.187649      -277.2200
   6   1.0000     -10.186253      -277.1820
   7   1.0000     -10.185689      -277.1667
   8   1.0000     -10.184434      -277.1325
   9   1.0000     -10.183963      -277.1197
  10   1.0000     -10.183180      -277.0984
  11   1.0000     -10.181005      -277.0392
  12   1.0000     -10.180727      -277.0317
  13   1.0000     -10.180531      -277.0263
  14   1.0000     -10.176981      -276.9297
  15   1.0000     -10.175110      -276.8788
  16   1.0000      -0.862256       -23.4632
  17   1.0000      -0.808569       -22.0023
  18   1.0000      -0.793260       -21.5857
  19   1.0000      -0.779328       -21.2066
  20   1.0000      -0.761417       -20.7192
  21   1.0000      -0.726434       -19.7673
  22   1.0000      -0.721470       -19.6322
  23   1.0000      -0.693923       -18.8826
  24   1.0000      -0.650402       -17.6983
  25   1.0000      -0.619927       -16.8691
  26   1.0000      -0.607259       -16.5244
  27   1.0000      -0.587172       -15.9778
  28   1.0000      -0.576492       -15.6871
  29   1.0000      -0.556465       -15.1422
  30   1.0000      -0.524098       -14.2614
  31   1.0000      -0.492228       -13.3942
  32   1.0000      -0.470461       -12.8019
  33   1.0000      -0.468321       -12.7437
  34   1.0000      -0.460388       -12.5278
  35   1.0000      -0.458221       -12.4688
  36   1.0000      -0.426229       -11.5983
  37   1.0000      -0.424977       -11.5642
  38   1.0000      -0.421506       -11.4698
  39   1.0000      -0.416938       -11.3455
  40   1.0000      -0.409726       -11.1492
  41   1.0000      -0.387508       -10.5446
  42   1.0000      -0.386429       -10.5153
  43   1.0000      -0.372199       -10.1281
  44   1.0000      -0.370762       -10.0890
  45   1.0000      -0.361825        -9.8458
  46   1.0000      -0.346581        -9.4309
  47   1.0000      -0.344978        -9.3873
  48   1.0000      -0.336096        -9.1456
  49   1.0000      -0.330626        -8.9968
  50   1.0000      -0.328517        -8.9394
  51   1.0000      -0.324413        -8.8277
  52   1.0000      -0.321875        -8.7587
  53   1.0000      -0.320276        -8.7152
  54   1.0000      -0.305561        -8.3147
  55   1.0000      -0.271902        -7.3988
  56   1.0000      -0.252749        -6.8776
  57   1.0000      -0.228030        -6.2050
  58   0.0000      -0.074555        -2.0287
  59   0.0000      -0.022331        -0.6077
  60   0.0000       0.033069         0.8998
  61   0.0000       0.048585         1.3221
  62   0.0000       0.063803         1.7362

MULLIKEN ATOMIC CHARGES AND SPIN POPULATIONS
--------------------------------------------
   0 C :    0.619795    0.027103
   1 C :    0.027365    0.218164
   2 C :    0.084743   -0.160666
   3 C :   -0.003490    0.222981
   4 C :   -0.043000   -0.104274
   5 C :   -0.085373    0.241209
   6 C :    0.026638   -0.113533
   7 H :   -0.052867   -0.009487
   8 H :   -0.043190    0.004242
   9 C :   -0.073414    0.737371
  10 H :   -0.038023   -0.032290
  11 C :    0.029276   -0.050512
  12 H :    0.027963    0.033386
  13 H :    0.028030    0.033256
  14 C :   -0.040640    0.002298
  15 H :    0.011597    0.000548
  16 H :    0.011597    0.000531
  17 C :    0.003456   -0.000200
  18 H :    0.017859    0.000165
  19 H :    0.017890    0.000165
  20 C :    0.042951   -0.019275
  21 H :    0.031047    0.010465
  22 H :    0.030920    0.010225
  23 C :   -0.035009    0.000877
  24 H :    0.014197    0.000171
  25 H :    0.014372    0.000151
  26 C :   -0.025346    0.000018
  27 H :    0.006023    0.000054
  28 H :    0.006035    0.000055
  29 C :    0.002983   -0.000083
  30 H :    0.016506    0.000024
  31 H :    0.016531    0.000023
  32 C :   -0.593756   -0.045204
  33 H :   -0.030708    0.001791
  34 H :    0.013193   -0.000212
  35 H :    0.012659   -0.000006
  36 H :   -0.048809   -0.009529
Sum of atomic charges         :   -0.0000000

LOEWDIN ATOMIC CHARGES AND SPIN POPULATIONS
-------------------------------------------
   0 C :   -0.000169    0.012790
   1 C :   -0.005460    0.167756
   2 C :   -0.054961   -0.067723
   3 C :    0.006888    0.170473
   4 C :   -0.057491   -0.054760
   5 C :   -0.003345    0.180260
   6 C :   -0.033549   -0.062690
   7 H :    0.027070    0.000860
   8 H :    0.026697   -0.000450
   9 C :    0.002776    0.606918
  10 H :    0.016455    0.002964
  11 C :   -0.055732    0.005886
  12 H :    0.034056    0.026095
  13 H :    0.034031    0.025979
  14 C :   -0.046298    0.001292
  15 H :    0.025039    0.000346
  16 H :    0.025025    0.000336
  17 C :   -0.067650   -0.000034
  18 H :    0.025697    0.000266
  19 H :    0.025698    0.000266
  20 C :   -0.036357    0.002271
  21 H :    0.039291    0.008243
  22 H :    0.039218    0.008060
  23 C :   -0.043773    0.000150
  24 H :    0.023530    0.000056
  25 H :    0.023497    0.000050
  26 C :   -0.047102    0.000012
  27 H :    0.024162    0.000092
  28 H :    0.024165    0.000091
  29 C :   -0.067912   -0.000040
  30 H :    0.024893    0.000016
  31 H :    0.024906    0.000016
  32 C :   -0.055316   -0.035704
  33 H :    0.021779   -0.000068
  34 H :    0.028099   -0.000115
  35 H :    0.027404   -0.000007
  36 H :    0.024735    0.000045

  Mayer bond orders larger than 0.100000
B(  0-C ,  4-C ) :   0.9026 B(  0-C , 32-C ) :   2.1442 B(  1-C ,  2-C ) :   1.2936
B(  1-C ,  6-C ) :   1.4707 B(  1-C , 36-H ) :   0.9316 B(  2-C ,  3-C ) :   1.3035
B(  2-C ,  9-C ) :   1.3056 B(  3-C ,  4-C ) :   1.4466 B(  3-C ,  7-H ) :   0.9258
B(  4-C ,  5-C ) :   1.3647 B(  5-C ,  6-C ) :   1.4100 B(  5-C , 20-C ) :   1.0922
B(  6-C ,  8-H ) :   0.9184 B(  9-C , 10-H ) :   0.9302 B(  9-C , 11-C ) :   1.0818
B( 11-C , 12-H ) :   0.9135 B( 11-C , 13-H ) :   0.9134 B( 11-C , 14-C ) :   1.0708
B( 14-C , 15-H ) :   0.9442 B( 14-C , 16-H ) :   0.9442 B( 14-C , 17-C ) :   1.1064
B( 17-C , 18-H ) :   0.9657 B( 17-C , 19-H ) :   0.9657 B( 17-C , 34-H ) :   0.9614
B( 20-C , 21-H ) :   0.8981 B( 20-C , 22-H ) :   0.8982 B( 20-C , 23-C ) :   1.1005
B( 23-C , 24-H ) :   0.9301 B( 23-C , 25-H ) :   0.9297 B( 23-C , 26-C ) :   1.0761
B( 26-C , 27-H ) :   0.9412 B( 26-C , 28-H ) :   0.9412 B( 26-C , 29-C ) :   1.1059
B( 29-C , 30-H ) :   0.9662 B( 29-C , 31-H ) :   0.9662 B( 29-C , 35-H ) :   0.9618
B( 32-C , 33-H ) :   1.1163

FINAL SINGLE POINT ENERGY      -621.859830421639

DIPOLE MOMENT
-------------
                                X             Y             Z
Electronic contribution:     -4.82905       2.14994      -0.06852
Nuclear contribution   :      4.97546      -2.14942       0.07061
                        -----------------------------------------
Total Dipole Moment    :      0.14641       0.00051       0.00209
                        -----------------------------------------
Magnitude (a.u.)       :      0.14642
Magnitude (Debye)      :      0.37218

Rotational constants in cm-1:     0.039578     0.005999     0.005245
Rotational constants in MHz :  1186.530519   179.842538   157.240716

CHEMICAL SHIELDING SUMMARY (ppm)  --  Orbital contribution
----------------------------------------------------------

  Nucleus  Element    Isotropic     Anisotropy
  -------  -------  ------------   ------------
      7       H           24.379         11.168
      8       H           24.674          9.806
     10       H           26.199          8.390
     12       H           28.986          4.272
     13       H           28.980          4.276
     15       H           29.753          6.787
     16       H           29.756          6.802
     18       H           30.340          7.769
     19       H           30.344          7.766
     21       H           28.691          5.507
     22       H           28.683          5.641
     24       H           29.875          4.772
     25       H           29.861          4.795
     27       H           29.917          6.343
     28       H           29.921          6.356
     30       H           30.347          7.934
     31       H           30.352          7.928
     33       H           28.342         10.739
     34       H           30.129          9.927
     35       H           30.128         10.096
     36       H           24.788          7.002

                             ****ORCA TERMINATED NORMALLY****
TOTAL RUN TIME: 0 days 0 hours 24 minutes 32 seconds 234 msec
