                         Program Version 5.0.4 -  RELEASE  -
|  1> ! B3LYP cc-pVDZ AUTOAUX
|  2> %pal nprocs 16 end
|  3> *XYZFile 0 2 opt.xyz
|  4> %EPRNMR
|  5>         GTENSOR   TRUE
|  6>         NUCLEI    = ALL H {SHIFT, AISO, ADIP, AORB}
|  7> END
|  8>
|  9>                          ****END OF INPUT****

CARTESIAN COORDINATES (ANGSTROEM)
---------------------------------
  C     -2.934073   -0.018766   -0.033821
  C      1.296326    0.061617    0.042355
  C      0.590316    1.299012    0.023646
  C     -0.830012    1.218758   -0.002083
  C     -1.498941   -0.010710   -0.008376
  C     -0.774370   -1.238300    0.010896
  C      0.629305   -1.156514    0.035978
  H     -1.426643    2.131592   -0.017243
  H      1.218068   -2.074806    0.050925
  C      1.286599    2.534948    0.031266
  H      2.380846    2.491530    0.052874
  C      0.640774    3.887237    0.012787
  H     -0.012358    3.982869   -0.879700
  H     -0.049610    3.989014    0.876092
  C      1.643397    5.048244    0.030137
  H      2.282865    4.958144    0.927400
  H      2.320748    4.952086   -0.838264
  C      0.972655    6.422996    0.011073
  H      0.314265    6.559972    0.886339
  H      0.351320    6.553366   -0.891860
  C     -1.525236   -2.553953    0.005144
  H     -2.211934   -2.565966    0.872443
  H     -2.196235   -2.567265   -0.874138
  C     -0.682959   -3.832515    0.013733
  H     -0.008492   -3.844031   -0.862466
  H     -0.029866   -3.846912    0.905937
  C     -1.540346   -5.103812    0.002012
  H     -2.217942   -5.093520    0.875899
  H     -2.195918   -5.092106   -0.888500
  C     -0.711165   -6.390340    0.011269
  H     -0.071581   -6.448752    0.909014
  H     -0.048195   -6.446330   -0.869486
  C     -4.149637   -0.020449   -0.056778
  H     -5.221734   -0.017269   -0.080213
  H      1.717399    7.235047    0.023638
  H     -1.353742   -7.285750    0.001613
  H      2.389514    0.078501    0.062394

 Total Charge           Charge          ....    0
 Multiplicity           Mult            ....    2
 Number of Electrons    NEL             ....  117
 Basis Dimension        Dim             ....  329

ORBITAL ENERGIES
----------------
                 SPIN UP ORBITALS
  NO   OCC          E(Eh)            E(eV)
   0   1.0000     -10.207365      -277.7565
   1   1.0000     -10.199218      -277.5348
   2   1.0000     -10.192068      -277.3403
   3   1.0000     -10.191475      -277.3241
   4   1.0000     -10.190775      -277.3051
   5   1.0000     -10.189412      -277.2680
   6   1.0000     -10.188397      -277.2404
   7   1.0000     -10.187097      -277.2050
   8   1.0000     -10.184320      -277.1294
   9   1.0000     -10.184210      -277.1265
  10   1.0000     -10.184006      -277.1209
  11   1.0000     -10.182576      -277.0820
  12   1.0000     -10.180746      -277.0322
  13   1.0000     -10.180540      -277.0266
  14   1.0000     -10.176979      -276.9297
  15   1.0000     -10.175124      -276.8792
  16   1.0000      -0.865766       -23.5587
  17   1.0000      -0.814451       -22.1623
  18   1.0000      -0.794871       -21.6296
  19   1.0000      -0.780040       -21.2260
  20   1.0000      -0.763613       -20.7790
  21   1.0000      -0.730570       -19.8798
  22   1.0000      -0.723534       -19.6884
  23   1.0000      -0.696235       -18.9455
  24   1.0000      -0.653555       -17.7841
  25   1.0000      -0.622612       -16.9421
  26   1.0000      -0.612900       -16.6779
  27   1.0000      -0.588281       -16.0079
  28   1.0000      -0.578680       -15.7467
  29   1.0000      -0.559122       -15.2145
  30   1.0000      -0.525796       -14.3076
  31   1.0000      -0.494641       -13.4599
  32   1.0000      -0.472585       -12.8597
  33   1.0000      -0.469146       -12.7661
  34   1.0000      -0.462239       -12.5782
  35   1.0000      -0.461712       -12.5638
  36   1.0000      -0.428535       -11.6610
  37   1.0000      -0.426143       -11.5959
  38   1.0000      -0.422494       -11.4967
  39   1.0000      -0.419436       -11.4134
  40   1.0000      -0.410239       -11.1632
  41   1.0000      -0.395348       -10.7580
  42   1.0000      -0.387701       -10.5499
  43   1.0000      -0.375303       -10.2125
  44   1.0000      -0.374354       -10.1867
  45   1.0000      -0.362856        -9.8738
  46   1.0000      -0.348029        -9.4703
  47   1.0000      -0.347630        -9.4595
  48   1.0000      -0.338191        -9.2026
  49   1.0000      -0.331273        -9.0144
  50   1.0000      -0.330498        -8.9933
  51   1.0000      -0.324924        -8.8416
  52   1.0000      -0.322444        -8.7742
  53   1.0000      -0.321196        -8.7402
  54   1.0000      -0.307957        -8.3799
  55   1.0000      -0.271971        -7.4007
  56   1.0000      -0.267903        -7.2900
  57   1.0000      -0.236257        -6.4289
  58   1.0000      -0.171298        -4.6613
  59   0.0000      -0.031428        -0.8552
  60   0.0000       0.015227         0.4143
  61   0.0000       0.048177         1.3110
  62   0.0000       0.063215         1.7202
  63   0.0000       0.063828         1.7368

                 SPIN DOWN ORBITALS
  NO   OCC          E(Eh)            E(eV)
   0   1.0000     -10.208889      -277.7980
   1   1.0000     -10.195687      -277.4388
   2   1.0000     -10.194384      -277.4033
   3   1.0000     -10.188030      -277.2304
   4   1.0000     -10.187818      -277.2246
   5   1.0000     -10.187644      -277.2199
   6   1.0000     -10.186331      -277.1842
   7   1.0000     -10.185742      -277.1681
   8   1.0000     -10.184420      -277.1322
   9   1.0000     -10.183963      -277.1197
  10   1.0000     -10.183150      -277.0976
  11   1.0000     -10.181037      -277.0401
  12   1.0000     -10.180746      -277.0322
  13   1.0000     -10.180538      -277.0265
  14   1.0000     -10.176987      -276.9299
  15   1.0000     -10.175126      -276.8792
  16   1.0000      -0.862269       -23.4635
  17   1.0000      -0.808580       -22.0026
  18   1.0000      -0.793272       -21.5860
  19   1.0000      -0.779335       -21.2068
  20   1.0000      -0.761434       -20.7197
  21   1.0000      -0.726449       -19.7677
  22   1.0000      -0.721465       -19.6321
  23   1.0000      -0.693930       -18.8828
  24   1.0000      -0.650402       -17.6983
  25   1.0000      -0.619938       -16.8694
  26   1.0000      -0.607272       -16.5247
  27   1.0000      -0.587176       -15.9779
  28   1.0000      -0.576484       -15.6869
  29   1.0000      -0.556465       -15.1422
  30   1.0000      -0.524097       -14.2614
  31   1.0000      -0.492237       -13.3944
  32   1.0000      -0.470472       -12.8022
  33   1.0000      -0.468326       -12.7438
  34   1.0000      -0.460404       -12.5282
  35   1.0000      -0.458222       -12.4689
  36   1.0000      -0.426238       -11.5985
  37   1.0000      -0.424994       -11.5647
  38   1.0000      -0.421523       -11.4702
  39   1.0000      -0.416939       -11.3455
  40   1.0000      -0.409741       -11.1496
  41   1.0000      -0.387497       -10.5443
  42   1.0000      -0.386442       -10.5156
  43   1.0000      -0.372224       -10.1287
  44   1.0000      -0.370757       -10.0888
  45   1.0000      -0.361839        -9.8461
  46   1.0000      -0.346599        -9.4314
  47   1.0000      -0.344980        -9.3874
  48   1.0000      -0.336103        -9.1458
  49   1.0000      -0.330625        -8.9968
  50   1.0000      -0.328508        -8.9392
  51   1.0000      -0.324419        -8.8279
  52   1.0000      -0.321864        -8.7584
  53   1.0000      -0.320285        -8.7154
  54   1.0000      -0.305559        -8.3147
  55   1.0000      -0.271885        -7.3984
  56   1.0000      -0.252768        -6.8782
  57   1.0000      -0.228031        -6.2050
  58   0.0000      -0.074571        -2.0292
  59   0.0000      -0.022335        -0.6078
  60   0.0000       0.033049         0.8993
  61   0.0000       0.048602         1.3225
  62   0.0000       0.063804         1.7362

MULLIKEN ATOMIC CHARGES AND SPIN POPULATIONS
--------------------------------------------
   0 C :    0.619807    0.026995
   1 C :    0.027334    0.218132
   2 C :    0.084697   -0.160655
   3 C :   -0.003452    0.222956
   4 C :   -0.042940   -0.104226
   5 C :   -0.085416    0.241147
   6 C :    0.026663   -0.113504
   7 H :   -0.052864   -0.009485
   8 H :   -0.043194    0.004241
   9 C :   -0.073402    0.737412
  10 H :   -0.038020   -0.032296
  11 C :    0.029236   -0.050522
  12 H :    0.027962    0.033379
  13 H :    0.028026    0.033275
  14 C :   -0.040619    0.002300
  15 H :    0.011598    0.000545
  16 H :    0.011590    0.000533
  17 C :    0.003456   -0.000200
  18 H :    0.017860    0.000165
  19 H :    0.017884    0.000165
  20 C :    0.043007   -0.019261
  21 H :    0.031044    0.010467
  22 H :    0.030910    0.010216
  23 C :   -0.035072    0.000876
  24 H :    0.014177    0.000171
  25 H :    0.014390    0.000150
  26 C :   -0.025294    0.000018
  27 H :    0.006030    0.000054
  28 H :    0.006041    0.000055
  29 C :    0.002952   -0.000083
  30 H :    0.016501    0.000024
  31 H :    0.016524    0.000023
  32 C :   -0.593751   -0.045107
  33 H :   -0.030717    0.001784
  34 H :    0.013196   -0.000212
  35 H :    0.012657   -0.000006
  36 H :   -0.048797   -0.009526
Sum of atomic charges         :   -0.0000000

LOEWDIN ATOMIC CHARGES AND SPIN POPULATIONS
-------------------------------------------
   0 C :   -0.000156    0.012736
   1 C :   -0.005489    0.167736
   2 C :   -0.054964   -0.067725
   3 C :    0.006885    0.170454
   4 C :   -0.057470   -0.054747
   5 C :   -0.003317    0.180227
   6 C :   -0.033551   -0.062677
   7 H :    0.027074    0.000861
   8 H :    0.026695   -0.000451
   9 C :    0.002785    0.606954
  10 H :    0.016455    0.002963
  11 C :   -0.055743    0.005885
  12 H :    0.034053    0.026087
  13 H :    0.034035    0.025996
  14 C :   -0.046309    0.001292
  15 H :    0.025041    0.000344
  16 H :    0.025027    0.000337
  17 C :   -0.067650   -0.000034
  18 H :    0.025701    0.000266
  19 H :    0.025700    0.000266
  20 C :   -0.036339    0.002272
  21 H :    0.039288    0.008247
  22 H :    0.039206    0.008051
  23 C :   -0.043806    0.000150
  24 H :    0.023544    0.000056
  25 H :    0.023496    0.000050
  26 C :   -0.047129    0.000012
  27 H :    0.024173    0.000091
  28 H :    0.024176    0.000091
  29 C :   -0.067916   -0.000040
  30 H :    0.024894    0.000016
  31 H :    0.024911    0.000016
  32 C :   -0.055323   -0.035641
  33 H :    0.021772   -0.000070
  34 H :    0.028101   -0.000115
  35 H :    0.027407   -0.000007
  36 H :    0.024742    0.000046

  Mayer bond orders larger than 0.100000
B(  0-C ,  4-C ) :   0.9026 B(  0-C , 32-C ) :   2.1442 B(  1-C ,  2-C ) :   1.2936
B(  1-C ,  6-C ) :   1.4707 B(  1-C , 36-H ) :   0.9316 B(  2-C ,  3-C ) :   1.3036
B(  2-C ,  9-C ) :   1.3056 B(  3-C ,  4-C ) :   1.4466 B(  3-C ,  7-H ) :   0.9258
B(  4-C ,  5-C ) :   1.3647 B(  5-C ,  6-C ) :   1.4100 B(  5-C , 20-C ) :   1.0922
B(  6-C ,  8-H ) :   0.9184 B(  9-C , 10-H ) :   0.9302 B(  9-C , 11-C ) :   1.0818
B( 11-C , 12-H ) :   0.9135 B( 11-C , 13-H ) :   0.9134 B( 11-C , 14-C ) :   1.0708
B( 14-C , 15-H ) :   0.9442 B( 14-C , 16-H ) :   0.9442 B( 14-C , 17-C ) :   1.1064
B( 17-C , 18-H ) :   0.9657 B( 17-C , 19-H ) :   0.9657 B( 17-C , 34-H ) :   0.9613
B( 20-C , 21-H ) :   0.8982 B( 20-C , 22-H ) :   0.8982 B( 20-C , 23-C ) :   1.1005
B( 23-C , 24-H ) :   0.9301 B( 23-C , 25-H ) :   0.9297 B( 23-C , 26-C ) :   1.0761
B( 26-C , 27-H ) :   0.9412 B( 26-C , 28-H ) :   0.9412 B( 26-C , 29-C ) :   1.1059
B( 29-C , 30-H ) :   0.9662 B( 29-C , 31-H ) :   0.9662 B( 29-C , 35-H ) :   0.9618
B( 32-C , 33-H ) :   1.1163

FINAL SINGLE POINT ENERGY      -621.859834089163

DIPOLE MOMENT
-------------
                                X             Y             Z
Electronic contribution:     -4.83056       2.15052      -0.05958
Nuclear contribution   :      4.97690      -2.15001       0.06175
                        -----------------------------------------
Total Dipole Moment    :      0.14634       0.00052       0.00217
                        -----------------------------------------
Magnitude (a.u.)       :      0.14636
Magnitude (Debye)      :      0.37202

Rotational constants in cm-1:     0.039573     0.005999     0.005245
Rotational constants in MHz :  1186.357256   179.855377   157.247625

CHEMICAL SHIELDING SUMMARY (ppm)  --  Orbital contribution
----------------------------------------------------------

  Nucleus  Element    Isotropic     Anisotropy
  -------  -------  ------------   ------------
      7       H           24.379         11.168
      8       H           24.672          9.810
     10       H           26.198          8.391
     12       H           28.984          4.271
     13       H           28.982          4.276
     15       H           29.754          6.790
     16       H           29.753          6.798
     18       H           30.342          7.768
     19       H           30.342          7.766
     21       H           28.693          5.498
     22       H           28.682          5.651
     24       H           29.875          4.768
     25       H           29.861          4.799
     27       H           29.920          6.344
     28       H           29.921          6.354
     30       H           30.349          7.938
     31       H           30.349          7.927
     33       H           28.344         10.737
     34       H           30.129          9.928
     35       H           30.128         10.097
     36       H           24.785          7.008

                             ****ORCA TERMINATED NORMALLY****
TOTAL RUN TIME: 0 days 0 hours 24 minutes 45 seconds 430 msec
