                         Program Version 5.0.4 -  RELEASE  -
|  1> ! B3LYP EPR-II AUTOAUX
|  2> %pal nprocs 16 end
|  3> *XYZFile 0 2 opt_EPRII.xyz
|  4> %EPRNMR
|  5>         GTENSOR   TRUE
|  6>         NUCLEI    = ALL H {SHIFT, AISO, ADIP, AORB}
|  7>         ORI       CenterOfElCharge
|  8> END
|  9>
| 10>                          ****END OF INPUT****

CARTESIAN COORDINATES (ANGSTROEM)
---------------------------------
  C     -2.943722   -0.016991   -0.034021
  C      1.296695    0.060298    0.032841
  C      0.587353    1.301631    0.016913
  C     -0.836879    1.224848   -0.005828
  C     -1.505465   -0.009021   -0.011491
  C     -0.782186   -1.240370    0.005053
  C      0.626187   -1.161313    0.026992
  H     -1.428855    2.133872   -0.018797
  H      1.209869   -2.075998    0.039720
  C      1.288952    2.539403    0.024368
  H      2.376931    2.497568    0.042798
  C      0.641340    3.898229    0.008650
  H      0.003029    3.999589   -0.883878
  H     -0.042119    3.998247    0.867145
  C      1.653991    5.058367    0.035927
  H      2.281175    4.965743    0.931881
  H      2.327242    4.967521   -0.826191
  C      0.980438    6.440706    0.019529
  H      0.324246    6.569689    0.887703
  H      0.369154    6.570490   -0.880724
  C     -1.536448   -2.559965   -0.000484
  H     -2.216592   -2.572581    0.862390
  H     -2.195034   -2.577891   -0.879766
  C     -0.683713   -3.838537    0.014084
  H     -0.015200   -3.852723   -0.857175
  H     -0.040135   -3.849399    0.903990
  C     -1.543411   -5.115692    0.004753
  H     -2.214933   -5.105554    0.873519
  H     -2.188987   -5.110202   -0.883502
  C     -0.704208   -6.405133    0.020515
  H     -0.072588   -6.452980    0.914827
  H     -0.045503   -6.456771   -0.853815
  C     -4.163750   -0.026494   -0.054089
  H     -5.229461   -0.029959   -0.073501
  H      1.722863    7.245059    0.038689
  H     -1.341129   -7.295750    0.012738
  H      2.384255    0.078932    0.050170

 Total Charge           Charge          ....    0
 Multiplicity           Mult            ....    2
 Number of Electrons    NEL             ....  117
 Basis Dimension        Dim             ....  419

ORBITAL ENERGIES
----------------
                 SPIN UP ORBITALS
  NO   OCC          E(Eh)            E(eV)
   0   1.0000     -10.218678      -278.0644
   1   1.0000     -10.209326      -277.8099
   2   1.0000     -10.203570      -277.6532
   3   1.0000     -10.203330      -277.6467
   4   1.0000     -10.198262      -277.5088
   5   1.0000     -10.197137      -277.4782
   6   1.0000     -10.197066      -277.4763
   7   1.0000     -10.193530      -277.3801
   8   1.0000     -10.191979      -277.3378
   9   1.0000     -10.187471      -277.2152
  10   1.0000     -10.184346      -277.1302
  11   1.0000     -10.183696      -277.1125
  12   1.0000     -10.180066      -277.0137
  13   1.0000     -10.179846      -277.0077
  14   1.0000     -10.172632      -276.8114
  15   1.0000     -10.170397      -276.7506
  16   1.0000      -0.863294       -23.4914
  17   1.0000      -0.811677       -22.0868
  18   1.0000      -0.791792       -21.5458
  19   1.0000      -0.778782       -21.1917
  20   1.0000      -0.761681       -20.7264
  21   1.0000      -0.728480       -19.8230
  22   1.0000      -0.723997       -19.7009
  23   1.0000      -0.694796       -18.9064
  24   1.0000      -0.652780       -17.7630
  25   1.0000      -0.622826       -16.9480
  26   1.0000      -0.612924       -16.6785
  27   1.0000      -0.588923       -16.0254
  28   1.0000      -0.579639       -15.7728
  29   1.0000      -0.560098       -15.2410
  30   1.0000      -0.528169       -14.3722
  31   1.0000      -0.495133       -13.4733
  32   1.0000      -0.471748       -12.8369
  33   1.0000      -0.469561       -12.7774
  34   1.0000      -0.462676       -12.5901
  35   1.0000      -0.462547       -12.5865
  36   1.0000      -0.427240       -11.6258
  37   1.0000      -0.425448       -11.5770
  38   1.0000      -0.422181       -11.4881
  39   1.0000      -0.420229       -11.4350
  40   1.0000      -0.409892       -11.1537
  41   1.0000      -0.396438       -10.7876
  42   1.0000      -0.386547       -10.5185
  43   1.0000      -0.375317       -10.2129
  44   1.0000      -0.374571       -10.1926
  45   1.0000      -0.361795        -9.8449
  46   1.0000      -0.349572        -9.5123
  47   1.0000      -0.347367        -9.4523
  48   1.0000      -0.336136        -9.1467
  49   1.0000      -0.332605        -9.0506
  50   1.0000      -0.330396        -8.9905
  51   1.0000      -0.324151        -8.8206
  52   1.0000      -0.323986        -8.8161
  53   1.0000      -0.319338        -8.6896
  54   1.0000      -0.308234        -8.3875
  55   1.0000      -0.273076        -7.4308
  56   1.0000      -0.267722        -7.2851
  57   1.0000      -0.237013        -6.4495
  58   1.0000      -0.171624        -4.6701
  59   0.0000      -0.035038        -0.9534
  60   0.0000       0.012043         0.3277
  61   0.0000       0.020824         0.5666
  62   0.0000       0.022981         0.6254
  63   0.0000       0.027399         0.7456

                 SPIN DOWN ORBITALS
  NO   OCC          E(Eh)            E(eV)
   0   1.0000     -10.220209      -278.1060
   1   1.0000     -10.205781      -277.7134
   2   1.0000     -10.205730      -277.7120
   3   1.0000     -10.203170      -277.6424
   4   1.0000     -10.195096      -277.4227
   5   1.0000     -10.194131      -277.3964
   6   1.0000     -10.194070      -277.3947
   7   1.0000     -10.193392      -277.3763
   8   1.0000     -10.188161      -277.2340
   9   1.0000     -10.186650      -277.1928
  10   1.0000     -10.184548      -277.1356
  11   1.0000     -10.183656      -277.1114
  12   1.0000     -10.180065      -277.0137
  13   1.0000     -10.179846      -277.0077
  14   1.0000     -10.172642      -276.8117
  15   1.0000     -10.170399      -276.7506
  16   1.0000      -0.859824       -23.3970
  17   1.0000      -0.805758       -21.9258
  18   1.0000      -0.790285       -21.5047
  19   1.0000      -0.778104       -21.1733
  20   1.0000      -0.759488       -20.6667
  21   1.0000      -0.724929       -19.7263
  22   1.0000      -0.721404       -19.6304
  23   1.0000      -0.692540       -18.8450
  24   1.0000      -0.649564       -17.6755
  25   1.0000      -0.620165       -16.8755
  26   1.0000      -0.607330       -16.5263
  27   1.0000      -0.587802       -15.9949
  28   1.0000      -0.577412       -15.7122
  29   1.0000      -0.557427       -15.1684
  30   1.0000      -0.526619       -14.3300
  31   1.0000      -0.492590       -13.4040
  32   1.0000      -0.469441       -12.7741
  33   1.0000      -0.468746       -12.7552
  34   1.0000      -0.460838       -12.5400
  35   1.0000      -0.459241       -12.4966
  36   1.0000      -0.426234       -11.5984
  37   1.0000      -0.423034       -11.5113
  38   1.0000      -0.421048       -11.4573
  39   1.0000      -0.417878       -11.3710
  40   1.0000      -0.409465       -11.1421
  41   1.0000      -0.389052       -10.5866
  42   1.0000      -0.385147       -10.4804
  43   1.0000      -0.372311       -10.1311
  44   1.0000      -0.370920       -10.0932
  45   1.0000      -0.360792        -9.8177
  46   1.0000      -0.346447        -9.4273
  47   1.0000      -0.346379        -9.4254
  48   1.0000      -0.333967        -9.0877
  49   1.0000      -0.330715        -8.9992
  50   1.0000      -0.329709        -8.9719
  51   1.0000      -0.323628        -8.8064
  52   1.0000      -0.323431        -8.8010
  53   1.0000      -0.318494        -8.6667
  54   1.0000      -0.305658        -8.3174
  55   1.0000      -0.272980        -7.4282
  56   1.0000      -0.252403        -6.8682
  57   1.0000      -0.228756        -6.2248
  58   0.0000      -0.075383        -2.0513
  59   0.0000      -0.026272        -0.7149
  60   0.0000       0.021129         0.5749
  61   0.0000       0.023195         0.6312
  62   0.0000       0.027704         0.7539

MULLIKEN ATOMIC CHARGES AND SPIN POPULATIONS
--------------------------------------------
   0 C :   -0.003440    0.024233
   1 C :   -0.368307    0.206667
   2 C :    0.639387   -0.132174
   3 C :   -0.474601    0.215976
   4 C :    0.453537   -0.089221
   5 C :    0.239278    0.227829
   6 C :   -0.217729   -0.107485
   7 H :    0.129077   -0.011779
   8 H :    0.114992    0.004985
   9 C :   -0.320057    0.731617
  10 H :    0.121661   -0.038209
  11 C :   -0.266852   -0.046760
  12 H :    0.152651    0.031214
  13 H :    0.151948    0.030711
  14 C :   -0.294046    0.002194
  15 H :    0.155227   -0.000145
  16 H :    0.154876   -0.000136
  17 C :   -0.509923   -0.000852
  18 H :    0.160057    0.000178
  19 H :    0.160028    0.000178
  20 C :   -0.373961   -0.016674
  21 H :    0.156610    0.010539
  22 H :    0.156431    0.010456
  23 C :   -0.274156    0.000934
  24 H :    0.141700    0.000197
  25 H :    0.141515    0.000193
  26 C :   -0.265964   -0.000261
  27 H :    0.145516    0.000044
  28 H :    0.145595    0.000044
  29 C :   -0.512140   -0.000090
  30 H :    0.159591    0.000023
  31 H :    0.159571    0.000023
  32 C :   -0.533460   -0.044682
  33 H :    0.182279    0.001818
  34 H :    0.146322   -0.000173
  35 H :    0.145456   -0.000005
  36 H :    0.101331   -0.011407
Sum of atomic charges         :   -0.0000000

LOEWDIN ATOMIC CHARGES AND SPIN POPULATIONS
-------------------------------------------
   0 C :   -0.028232    0.012919
   1 C :   -0.022778    0.167272
   2 C :   -0.087568   -0.068341
   3 C :    0.003855    0.173418
   4 C :   -0.075138   -0.054916
   5 C :   -0.040242    0.182030
   6 C :   -0.043132   -0.063540
   7 H :    0.058277    0.001217
   8 H :    0.053179   -0.000603
   9 C :   -0.031150    0.607000
  10 H :    0.048332    0.004504
  11 C :   -0.083346    0.003840
  12 H :    0.054037    0.025661
  13 H :    0.053845    0.025207
  14 C :   -0.088534    0.001070
  15 H :    0.041805   -0.000042
  16 H :    0.041726   -0.000043
  17 C :   -0.077823   -0.000162
  18 H :    0.034322    0.000213
  19 H :    0.034330    0.000215
  20 C :   -0.045719    0.001689
  21 H :    0.059646    0.008429
  22 H :    0.059632    0.008364
  23 C :   -0.080799    0.000188
  24 H :    0.043946    0.000020
  25 H :    0.043904    0.000020
  26 C :   -0.090113   -0.000014
  27 H :    0.041090    0.000056
  28 H :    0.041084    0.000057
  29 C :   -0.079318   -0.000036
  30 H :    0.033810    0.000015
  31 H :    0.033817    0.000015
  32 C :   -0.065503   -0.035964
  33 H :    0.044709   -0.000219
  34 H :    0.032044   -0.000086
  35 H :    0.031535   -0.000006
  36 H :    0.050469    0.000553

  Mayer bond orders larger than 0.100000
B(  0-C ,  4-C ) :   0.9065 B(  0-C , 32-C ) :   2.7078 B(  1-C ,  2-C ) :   1.2471
B(  1-C ,  5-C ) :   0.1137 B(  1-C ,  6-C ) :   1.5175 B(  1-C ,  9-C ) :   0.1646
B(  1-C , 36-H ) :   0.9811 B(  2-C ,  3-C ) :   1.2585 B(  2-C ,  4-C ) :   0.1176
B(  2-C ,  6-C ) :   0.1061 B(  2-C ,  9-C ) :   1.1968 B(  3-C ,  4-C ) :   1.4524
B(  3-C ,  7-H ) :   0.9796 B(  3-C ,  9-C ) :   0.1157 B(  4-C ,  5-C ) :   1.3459
B(  5-C ,  6-C ) :   1.3915 B(  5-C , 20-C ) :   0.9530 B(  6-C ,  8-H ) :   0.9760
B(  9-C , 10-H ) :   1.0056 B(  9-C , 11-C ) :   0.9965 B( 11-C , 12-H ) :   0.9574
B( 11-C , 13-H ) :   0.9571 B( 11-C , 14-C ) :   0.9776 B( 14-C , 15-H ) :   0.9733
B( 14-C , 16-H ) :   0.9732 B( 14-C , 17-C ) :   0.9626 B( 17-C , 18-H ) :   0.9720
B( 17-C , 19-H ) :   0.9720 B( 17-C , 34-H ) :   0.9679 B( 20-C , 21-H ) :   0.9561
B( 20-C , 22-H ) :   0.9560 B( 20-C , 23-C ) :   1.0108 B( 23-C , 24-H ) :   0.9626
B( 23-C , 25-H ) :   0.9624 B( 23-C , 26-C ) :   0.9887 B( 26-C , 27-H ) :   0.9720
B( 26-C , 28-H ) :   0.9719 B( 26-C , 29-C ) :   0.9540 B( 29-C , 30-H ) :   0.9729
B( 29-C , 31-H ) :   0.9728 B( 29-C , 35-H ) :   0.9680 B( 32-C , 33-H ) :   0.9832

FINAL SINGLE POINT ENERGY      -621.922168404639

DIPOLE MOMENT
-------------
                                X             Y             Z
Electronic contribution:     -4.84964       2.15289      -0.10865
Nuclear contribution   :      5.05010      -2.15492       0.11163
                        -----------------------------------------
Total Dipole Moment    :      0.20047      -0.00203       0.00298
                        -----------------------------------------
Magnitude (a.u.)       :      0.20050
Magnitude (Debye)      :      0.50963

Rotational constants in cm-1:     0.039366     0.005972     0.005220
Rotational constants in MHz :  1180.173357   179.023977   156.494684

CHEMICAL SHIELDING SUMMARY (ppm)  --  Orbital contribution
----------------------------------------------------------

  Nucleus  Element    Isotropic     Anisotropy
  -------  -------  ------------   ------------
      7       H           50.748         29.371
      8       H           36.276         28.847
     10       H           22.386          7.526
     12       H           62.497         11.106
     13       H           63.417         10.712
     15       H           18.085         17.450
     16       H           17.113         17.598
     18       H           19.776         12.142
     19       H           19.022         12.407
     21       H           52.929         24.776
     22       H           52.874         24.704
     24       H           61.738         10.870
     25       H           61.659         10.850
     27       H           24.647         17.562
     28       H           24.656         17.544
     30       H           17.617         12.649
     31       H           17.703         12.634
     33       H          -43.449        -50.019
     34       H          -71.130         16.200
     35       H          -64.450         20.165
     36       H           24.209         37.301

                             ****ORCA TERMINATED NORMALLY****
TOTAL RUN TIME: 0 days 0 hours 28 minutes 39 seconds 366 msec
