                         Program Version 5.0.4 -  RELEASE  -
|  1> ! B3LYP EPR-II AUTOAUX
|  2> %pal nprocs 16 end
|  3> *XYZFile 0 2 opt.xyz
|  4> %EPRNMR
|  5>         GTENSOR   TRUE
|  6>         NUCLEI    = ALL H {SHIFT, AISO, ADIP, AORB}
|  7>         ORI       GIAO
|  8> END
|  9>
| 10>                          ****END OF INPUT****

CARTESIAN COORDINATES (ANGSTROEM)
---------------------------------
  C     -2.934073   -0.018766   -0.033821
  C      1.296326    0.061617    0.042355
  C      0.590316    1.299012    0.023646
  C     -0.830012    1.218758   -0.002083
  C     -1.498941   -0.010710   -0.008376
  C     -0.774370   -1.238300    0.010896
  C      0.629305   -1.156514    0.035978
  H     -1.426643    2.131592   -0.017243
  H      1.218068   -2.074806    0.050925
  C      1.286599    2.534948    0.031266
  H      2.380846    2.491530    0.052874
  C      0.640774    3.887237    0.012787
  H     -0.012358    3.982869   -0.879700
  H     -0.049610    3.989014    0.876092
  C      1.643397    5.048244    0.030137
  H      2.282865    4.958144    0.927400
  H      2.320748    4.952086   -0.838264
  C      0.972655    6.422996    0.011073
  H      0.314265    6.559972    0.886339
  H      0.351320    6.553366   -0.891860
  C     -1.525236   -2.553953    0.005144
  H     -2.211934   -2.565966    0.872443
  H     -2.196235   -2.567265   -0.874138
  C     -0.682959   -3.832515    0.013733
  H     -0.008492   -3.844031   -0.862466
  H     -0.029866   -3.846912    0.905937
  C     -1.540346   -5.103812    0.002012
  H     -2.217942   -5.093520    0.875899
  H     -2.195918   -5.092106   -0.888500
  C     -0.711165   -6.390340    0.011269
  H     -0.071581   -6.448752    0.909014
  H     -0.048195   -6.446330   -0.869486
  C     -4.149637   -0.020449   -0.056778
  H     -5.221734   -0.017269   -0.080213
  H      1.717399    7.235047    0.023638
  H     -1.353742   -7.285750    0.001613
  H      2.389514    0.078501    0.062394

 Total Charge           Charge          ....    0
 Multiplicity           Mult            ....    2
 Number of Electrons    NEL             ....  117
 Basis Dimension        Dim             ....  419

ORBITAL ENERGIES
----------------
                 SPIN UP ORBITALS
  NO   OCC          E(Eh)            E(eV)
   0   1.0000     -10.217678      -278.0371
   1   1.0000     -10.208399      -277.7847
   2   1.0000     -10.202581      -277.6263
   3   1.0000     -10.202255      -277.6175
   4   1.0000     -10.197818      -277.4967
   5   1.0000     -10.196962      -277.4734
   6   1.0000     -10.196803      -277.4691
   7   1.0000     -10.193304      -277.3739
   8   1.0000     -10.191570      -277.3267
   9   1.0000     -10.188601      -277.2459
  10   1.0000     -10.185244      -277.1546
  11   1.0000     -10.184994      -277.1478
  12   1.0000     -10.181332      -277.0481
  13   1.0000     -10.181100      -277.0418
  14   1.0000     -10.174840      -276.8715
  15   1.0000     -10.172620      -276.8111
  16   1.0000      -0.865255       -23.5448
  17   1.0000      -0.813125       -22.1263
  18   1.0000      -0.792910       -21.5762
  19   1.0000      -0.779962       -21.2239
  20   1.0000      -0.762674       -20.7534
  21   1.0000      -0.729105       -19.8400
  22   1.0000      -0.724734       -19.7210
  23   1.0000      -0.694892       -18.9090
  24   1.0000      -0.652475       -17.7547
  25   1.0000      -0.622838       -16.9483
  26   1.0000      -0.611913       -16.6510
  27   1.0000      -0.587885       -15.9972
  28   1.0000      -0.577962       -15.7271
  29   1.0000      -0.558954       -15.2099
  30   1.0000      -0.527161       -14.3448
  31   1.0000      -0.495197       -13.4750
  32   1.0000      -0.472297       -12.8519
  33   1.0000      -0.468692       -12.7538
  34   1.0000      -0.462413       -12.5829
  35   1.0000      -0.461588       -12.5605
  36   1.0000      -0.427858       -11.6426
  37   1.0000      -0.426007       -11.5922
  38   1.0000      -0.422108       -11.4861
  39   1.0000      -0.419204       -11.4071
  40   1.0000      -0.409708       -11.1487
  41   1.0000      -0.395269       -10.7558
  42   1.0000      -0.386965       -10.5299
  43   1.0000      -0.375157       -10.2086
  44   1.0000      -0.374232       -10.1834
  45   1.0000      -0.362103        -9.8533
  46   1.0000      -0.347857        -9.4657
  47   1.0000      -0.347421        -9.4538
  48   1.0000      -0.337341        -9.1795
  49   1.0000      -0.330664        -8.9978
  50   1.0000      -0.330291        -8.9877
  51   1.0000      -0.324204        -8.8220
  52   1.0000      -0.321747        -8.7552
  53   1.0000      -0.320307        -8.7160
  54   1.0000      -0.308689        -8.3998
  55   1.0000      -0.273768        -7.4496
  56   1.0000      -0.267826        -7.2879
  57   1.0000      -0.237441        -6.4611
  58   1.0000      -0.171298        -4.6613
  59   0.0000      -0.034377        -0.9354
  60   0.0000       0.012930         0.3518
  61   0.0000       0.020733         0.5642
  62   0.0000       0.022709         0.6179
  63   0.0000       0.026961         0.7336

                 SPIN DOWN ORBITALS
  NO   OCC          E(Eh)            E(eV)
   0   1.0000     -10.219176      -278.0779
   1   1.0000     -10.204885      -277.6890
   2   1.0000     -10.204620      -277.6818
   3   1.0000     -10.202215      -277.6164
   4   1.0000     -10.194694      -277.4117
   5   1.0000     -10.193867      -277.3892
   6   1.0000     -10.193749      -277.3860
   7   1.0000     -10.192975      -277.3650
   8   1.0000     -10.189306      -277.2651
   9   1.0000     -10.186570      -277.1907
  10   1.0000     -10.185447      -277.1601
  11   1.0000     -10.184954      -277.1467
  12   1.0000     -10.181332      -277.0481
  13   1.0000     -10.181099      -277.0418
  14   1.0000     -10.174849      -276.8717
  15   1.0000     -10.172621      -276.8111
  16   1.0000      -0.861780       -23.4502
  17   1.0000      -0.807171       -21.9642
  18   1.0000      -0.791399       -21.5351
  19   1.0000      -0.779294       -21.2057
  20   1.0000      -0.760495       -20.6941
  21   1.0000      -0.725568       -19.7437
  22   1.0000      -0.722088       -19.6490
  23   1.0000      -0.692586       -18.8462
  24   1.0000      -0.649279       -17.6678
  25   1.0000      -0.620204       -16.8766
  26   1.0000      -0.606313       -16.4986
  27   1.0000      -0.586771       -15.9668
  28   1.0000      -0.575762       -15.6673
  29   1.0000      -0.556379       -15.1399
  30   1.0000      -0.525544       -14.3008
  31   1.0000      -0.492687       -13.4067
  32   1.0000      -0.470094       -12.7919
  33   1.0000      -0.467858       -12.7311
  34   1.0000      -0.460615       -12.5340
  35   1.0000      -0.458113       -12.4659
  36   1.0000      -0.426089       -11.5945
  37   1.0000      -0.424291       -11.5455
  38   1.0000      -0.421038       -11.4570
  39   1.0000      -0.416716       -11.3394
  40   1.0000      -0.409240       -11.1360
  41   1.0000      -0.387526       -10.5451
  42   1.0000      -0.385654       -10.4942
  43   1.0000      -0.372081       -10.1248
  44   1.0000      -0.370606       -10.0847
  45   1.0000      -0.361079        -9.8255
  46   1.0000      -0.346387        -9.4257
  47   1.0000      -0.344803        -9.3826
  48   1.0000      -0.335157        -9.1201
  49   1.0000      -0.330012        -8.9801
  50   1.0000      -0.328296        -8.9334
  51   1.0000      -0.323711        -8.8086
  52   1.0000      -0.321138        -8.7386
  53   1.0000      -0.319432        -8.6922
  54   1.0000      -0.306337        -8.3358
  55   1.0000      -0.273662        -7.4467
  56   1.0000      -0.252655        -6.8751
  57   1.0000      -0.229186        -6.2365
  58   0.0000      -0.075369        -2.0509
  59   0.0000      -0.025631        -0.6975
  60   0.0000       0.021042         0.5726
  61   0.0000       0.022918         0.6236
  62   0.0000       0.027285         0.7425

MULLIKEN ATOMIC CHARGES AND SPIN POPULATIONS
--------------------------------------------
   0 C :    0.002442    0.022628
   1 C :   -0.370298    0.204265
   2 C :    0.649498   -0.129302
   3 C :   -0.479623    0.213320
   4 C :    0.455595   -0.087192
   5 C :    0.247086    0.225535
   6 C :   -0.219751   -0.105277
   7 H :    0.127276   -0.011724
   8 H :    0.113237    0.004912
   9 C :   -0.318295    0.728182
  10 H :    0.119933   -0.038390
  11 C :   -0.262466   -0.047567
  12 H :    0.149721    0.032728
  13 H :    0.149480    0.032639
  14 C :   -0.286346    0.002276
  15 H :    0.152264   -0.000166
  16 H :    0.152181   -0.000163
  17 C :   -0.506916   -0.000833
  18 H :    0.157866    0.000190
  19 H :    0.157871    0.000189
  20 C :   -0.371350   -0.016788
  21 H :    0.154157    0.011082
  22 H :    0.153684    0.010831
  23 C :   -0.268414    0.000938
  24 H :    0.138929    0.000207
  25 H :    0.138268    0.000198
  26 C :   -0.257388   -0.000251
  27 H :    0.142517    0.000044
  28 H :    0.142629    0.000046
  29 C :   -0.509271   -0.000090
  30 H :    0.157421    0.000025
  31 H :    0.157437    0.000025
  32 C :   -0.538175   -0.042687
  33 H :    0.180929    0.001717
  34 H :    0.144656   -0.000176
  35 H :    0.143793   -0.000005
  36 H :    0.099421   -0.011365
Sum of atomic charges         :    0.0000000

LOEWDIN ATOMIC CHARGES AND SPIN POPULATIONS
-------------------------------------------
   0 C :   -0.029543    0.011810
   1 C :   -0.024718    0.165419
   2 C :   -0.089863   -0.066076
   3 C :    0.003042    0.171340
   4 C :   -0.075870   -0.053480
   5 C :   -0.041734    0.180321
   6 C :   -0.045300   -0.061768
   7 H :    0.060561    0.001064
   8 H :    0.055581   -0.000522
   9 C :   -0.033456    0.604161
  10 H :    0.051084    0.003847
  11 C :   -0.088414    0.003913
  12 H :    0.056591    0.026763
  13 H :    0.056549    0.026674
  14 C :   -0.094552    0.001106
  15 H :    0.044475   -0.000062
  16 H :    0.044456   -0.000062
  17 C :   -0.084038   -0.000121
  18 H :    0.036703    0.000230
  19 H :    0.036711    0.000230
  20 C :   -0.049967    0.001727
  21 H :    0.062209    0.008827
  22 H :    0.062198    0.008639
  23 C :   -0.085684    0.000189
  24 H :    0.046460    0.000020
  25 H :    0.046260    0.000022
  26 C :   -0.096028    0.000002
  27 H :    0.043708    0.000059
  28 H :    0.043699    0.000060
  29 C :   -0.085512   -0.000034
  30 H :    0.036161    0.000016
  31 H :    0.036175    0.000017
  32 C :   -0.066989   -0.034434
  33 H :    0.048248   -0.000188
  34 H :    0.034309   -0.000086
  35 H :    0.033778   -0.000006
  36 H :    0.052709    0.000382

  Mayer bond orders larger than 0.100000
B(  0-C ,  4-C ) :   0.9103 B(  0-C , 32-C ) :   2.7020 B(  1-C ,  2-C ) :   1.2450
B(  1-C ,  5-C ) :   0.1164 B(  1-C ,  6-C ) :   1.5181 B(  1-C ,  9-C ) :   0.1684
B(  1-C , 36-H ) :   0.9819 B(  2-C ,  3-C ) :   1.2563 B(  2-C ,  4-C ) :   0.1221
B(  2-C ,  6-C ) :   0.1099 B(  2-C ,  9-C ) :   1.1961 B(  3-C ,  4-C ) :   1.4550
B(  3-C ,  7-H ) :   0.9806 B(  3-C ,  9-C ) :   0.1175 B(  4-C ,  5-C ) :   1.3483
B(  4-C ,  6-C ) :   0.1021 B(  5-C ,  6-C ) :   1.3925 B(  5-C , 20-C ) :   0.9534
B(  6-C ,  8-H ) :   0.9769 B(  9-C , 10-H ) :   1.0069 B(  9-C , 11-C ) :   0.9989
B( 11-C , 12-H ) :   0.9562 B( 11-C , 13-H ) :   0.9560 B( 11-C , 14-C ) :   0.9781
B( 14-C , 15-H ) :   0.9730 B( 14-C , 16-H ) :   0.9730 B( 14-C , 17-C ) :   0.9624
B( 17-C , 18-H ) :   0.9719 B( 17-C , 19-H ) :   0.9719 B( 17-C , 34-H ) :   0.9677
B( 20-C , 21-H ) :   0.9559 B( 20-C , 22-H ) :   0.9558 B( 20-C , 23-C ) :   1.0120
B( 23-C , 24-H ) :   0.9619 B( 23-C , 25-H ) :   0.9614 B( 23-C , 26-C ) :   0.9907
B( 26-C , 27-H ) :   0.9714 B( 26-C , 28-H ) :   0.9713 B( 26-C , 29-C ) :   0.9537
B( 29-C , 30-H ) :   0.9728 B( 29-C , 31-H ) :   0.9728 B( 29-C , 35-H ) :   0.9679
B( 32-C , 33-H ) :   0.9841

FINAL SINGLE POINT ENERGY      -621.921225510646

DIPOLE MOMENT
-------------
                                X             Y             Z
Electronic contribution:     -4.79087       2.15099      -0.05919
Nuclear contribution   :      4.97690      -2.15001       0.06175
                        -----------------------------------------
Total Dipole Moment    :      0.18604       0.00098       0.00256
                        -----------------------------------------
Magnitude (a.u.)       :      0.18606
Magnitude (Debye)      :      0.47292

Rotational constants in cm-1:     0.039573     0.005999     0.005245
Rotational constants in MHz :  1186.357256   179.855377   157.247625

CHEMICAL SHIELDING SUMMARY (ppm)  --  Orbital contribution
----------------------------------------------------------

  Nucleus  Element    Isotropic     Anisotropy
  -------  -------  ------------   ------------
      7       H           24.358         11.519
      8       H           24.761         10.409
     10       H           26.261          9.109
     12       H           29.195          4.437
     13       H           29.192          4.446
     15       H           29.981          6.918
     16       H           29.980          6.927
     18       H           30.776          7.940
     19       H           30.776          7.938
     21       H           28.812          5.752
     22       H           28.803          5.902
     24       H           30.056          4.836
     25       H           30.044          4.867
     27       H           30.148          6.409
     28       H           30.148          6.420
     30       H           30.748          8.088
     31       H           30.748          8.079
     33       H           28.588         10.883
     34       H           30.528          9.965
     35       H           30.504         10.172
     36       H           24.854          7.578

                             ****ORCA TERMINATED NORMALLY****
TOTAL RUN TIME: 0 days 0 hours 28 minutes 34 seconds 503 msec
