                         Program Version 5.0.4 -  RELEASE  -
|  1> ! B3LYP EPR-II AUTOAUX
|  2> %pal nprocs 16 end
|  3> *XYZFile 0 2 opt.xyz
|  4> %EPRNMR
|  5>         GTENSOR   TRUE
|  6>         NUCLEI    = ALL H {SHIFT, AISO, ADIP, AORB}
|  7>         ORI       CenterOfElCharge
|  8> END
|  9>
| 10>                          ****END OF INPUT****

CARTESIAN COORDINATES (ANGSTROEM)
---------------------------------
  C     -2.934073   -0.018766   -0.033821
  C      1.296326    0.061617    0.042355
  C      0.590316    1.299012    0.023646
  C     -0.830012    1.218758   -0.002083
  C     -1.498941   -0.010710   -0.008376
  C     -0.774370   -1.238300    0.010896
  C      0.629305   -1.156514    0.035978
  H     -1.426643    2.131592   -0.017243
  H      1.218068   -2.074806    0.050925
  C      1.286599    2.534948    0.031266
  H      2.380846    2.491530    0.052874
  C      0.640774    3.887237    0.012787
  H     -0.012358    3.982869   -0.879700
  H     -0.049610    3.989014    0.876092
  C      1.643397    5.048244    0.030137
  H      2.282865    4.958144    0.927400
  H      2.320748    4.952086   -0.838264
  C      0.972655    6.422996    0.011073
  H      0.314265    6.559972    0.886339
  H      0.351320    6.553366   -0.891860
  C     -1.525236   -2.553953    0.005144
  H     -2.211934   -2.565966    0.872443
  H     -2.196235   -2.567265   -0.874138
  C     -0.682959   -3.832515    0.013733
  H     -0.008492   -3.844031   -0.862466
  H     -0.029866   -3.846912    0.905937
  C     -1.540346   -5.103812    0.002012
  H     -2.217942   -5.093520    0.875899
  H     -2.195918   -5.092106   -0.888500
  C     -0.711165   -6.390340    0.011269
  H     -0.071581   -6.448752    0.909014
  H     -0.048195   -6.446330   -0.869486
  C     -4.149637   -0.020449   -0.056778
  H     -5.221734   -0.017269   -0.080213
  H      1.717399    7.235047    0.023638
  H     -1.353742   -7.285750    0.001613
  H      2.389514    0.078501    0.062394

 Total Charge           Charge          ....    0
 Multiplicity           Mult            ....    2
 Number of Electrons    NEL             ....  117
 Basis Dimension        Dim             ....  419

ORBITAL ENERGIES
----------------
                 SPIN UP ORBITALS
  NO   OCC          E(Eh)            E(eV)
   0   1.0000     -10.217695      -278.0376
   1   1.0000     -10.208402      -277.7847
   2   1.0000     -10.202642      -277.6280
   3   1.0000     -10.202253      -277.6174
   4   1.0000     -10.197810      -277.4965
   5   1.0000     -10.196951      -277.4731
   6   1.0000     -10.196840      -277.4701
   7   1.0000     -10.193243      -277.3722
   8   1.0000     -10.191578      -277.3269
   9   1.0000     -10.188589      -277.2456
  10   1.0000     -10.185238      -277.1544
  11   1.0000     -10.184993      -277.1477
  12   1.0000     -10.181330      -277.0481
  13   1.0000     -10.181098      -277.0418
  14   1.0000     -10.174838      -276.8714
  15   1.0000     -10.172618      -276.8110
  16   1.0000      -0.865263       -23.5450
  17   1.0000      -0.813123       -22.1262
  18   1.0000      -0.792908       -21.5761
  19   1.0000      -0.779971       -21.2241
  20   1.0000      -0.762676       -20.7535
  21   1.0000      -0.729104       -19.8399
  22   1.0000      -0.724732       -19.7210
  23   1.0000      -0.694891       -18.9089
  24   1.0000      -0.652474       -17.7547
  25   1.0000      -0.622842       -16.9484
  26   1.0000      -0.611913       -16.6510
  27   1.0000      -0.587887       -15.9972
  28   1.0000      -0.577960       -15.7271
  29   1.0000      -0.558954       -15.2099
  30   1.0000      -0.527154       -14.3446
  31   1.0000      -0.495195       -13.4750
  32   1.0000      -0.472302       -12.8520
  33   1.0000      -0.468692       -12.7537
  34   1.0000      -0.462419       -12.5831
  35   1.0000      -0.461585       -12.5604
  36   1.0000      -0.427859       -11.6426
  37   1.0000      -0.426007       -11.5922
  38   1.0000      -0.422107       -11.4861
  39   1.0000      -0.419206       -11.4072
  40   1.0000      -0.409708       -11.1487
  41   1.0000      -0.395266       -10.7557
  42   1.0000      -0.386965       -10.5299
  43   1.0000      -0.375156       -10.2085
  44   1.0000      -0.374237       -10.1835
  45   1.0000      -0.362102        -9.8533
  46   1.0000      -0.347858        -9.4657
  47   1.0000      -0.347423        -9.4539
  48   1.0000      -0.337339        -9.1795
  49   1.0000      -0.330661        -8.9977
  50   1.0000      -0.330290        -8.9876
  51   1.0000      -0.324203        -8.8220
  52   1.0000      -0.321746        -8.7552
  53   1.0000      -0.320308        -8.7160
  54   1.0000      -0.308696        -8.4000
  55   1.0000      -0.273768        -7.4496
  56   1.0000      -0.267826        -7.2879
  57   1.0000      -0.237442        -6.4611
  58   1.0000      -0.171300        -4.6613
  59   0.0000      -0.034377        -0.9355
  60   0.0000       0.012928         0.3518
  61   0.0000       0.020734         0.5642
  62   0.0000       0.022711         0.6180
  63   0.0000       0.026963         0.7337

                 SPIN DOWN ORBITALS
  NO   OCC          E(Eh)            E(eV)
   0   1.0000     -10.219201      -278.0786
   1   1.0000     -10.204877      -277.6888
   2   1.0000     -10.204622      -277.6819
   3   1.0000     -10.202263      -277.6177
   4   1.0000     -10.194678      -277.4113
   5   1.0000     -10.193820      -277.3880
   6   1.0000     -10.193776      -277.3868
   7   1.0000     -10.192992      -277.3654
   8   1.0000     -10.189293      -277.2647
   9   1.0000     -10.186562      -277.1904
  10   1.0000     -10.185442      -277.1600
  11   1.0000     -10.184952      -277.1466
  12   1.0000     -10.181330      -277.0481
  13   1.0000     -10.181097      -277.0417
  14   1.0000     -10.174847      -276.8717
  15   1.0000     -10.172620      -276.8111
  16   1.0000      -0.861785       -23.4504
  17   1.0000      -0.807169       -21.9642
  18   1.0000      -0.791398       -21.5350
  19   1.0000      -0.779300       -21.2058
  20   1.0000      -0.760495       -20.6941
  21   1.0000      -0.725569       -19.7437
  22   1.0000      -0.722089       -19.6491
  23   1.0000      -0.692584       -18.8462
  24   1.0000      -0.649278       -17.6678
  25   1.0000      -0.620209       -16.8767
  26   1.0000      -0.606312       -16.4986
  27   1.0000      -0.586771       -15.9669
  28   1.0000      -0.575760       -15.6672
  29   1.0000      -0.556381       -15.1399
  30   1.0000      -0.525540       -14.3007
  31   1.0000      -0.492687       -13.4067
  32   1.0000      -0.470097       -12.7920
  33   1.0000      -0.467856       -12.7310
  34   1.0000      -0.460618       -12.5341
  35   1.0000      -0.458112       -12.4659
  36   1.0000      -0.426091       -11.5945
  37   1.0000      -0.424289       -11.5455
  38   1.0000      -0.421037       -11.4570
  39   1.0000      -0.416714       -11.3394
  40   1.0000      -0.409240       -11.1360
  41   1.0000      -0.387525       -10.5451
  42   1.0000      -0.385654       -10.4942
  43   1.0000      -0.372080       -10.1248
  44   1.0000      -0.370607       -10.0847
  45   1.0000      -0.361078        -9.8254
  46   1.0000      -0.346388        -9.4257
  47   1.0000      -0.344802        -9.3825
  48   1.0000      -0.335155        -9.1200
  49   1.0000      -0.330010        -8.9800
  50   1.0000      -0.328295        -8.9334
  51   1.0000      -0.323710        -8.8086
  52   1.0000      -0.321137        -8.7386
  53   1.0000      -0.319432        -8.6922
  54   1.0000      -0.306342        -8.3360
  55   1.0000      -0.273664        -7.4468
  56   1.0000      -0.252657        -6.8752
  57   1.0000      -0.229194        -6.2367
  58   0.0000      -0.075366        -2.0508
  59   0.0000      -0.025632        -0.6975
  60   0.0000       0.021044         0.5726
  61   0.0000       0.022920         0.6237
  62   0.0000       0.027286         0.7425

MULLIKEN ATOMIC CHARGES AND SPIN POPULATIONS
--------------------------------------------
   0 C :    0.002494    0.023000
   1 C :   -0.370144    0.204468
   2 C :    0.649466   -0.129425
   3 C :   -0.479677    0.213530
   4 C :    0.455596   -0.087412
   5 C :    0.247006    0.225779
   6 C :   -0.219705   -0.105473
   7 H :    0.127282   -0.011754
   8 H :    0.113229    0.004932
   9 C :   -0.318320    0.728094
  10 H :    0.119941   -0.038377
  11 C :   -0.262481   -0.047555
  12 H :    0.149723    0.032722
  13 H :    0.149483    0.032633
  14 C :   -0.286349    0.002280
  15 H :    0.152265   -0.000166
  16 H :    0.152182   -0.000162
  17 C :   -0.506902   -0.000834
  18 H :    0.157863    0.000190
  19 H :    0.157868    0.000189
  20 C :   -0.371339   -0.016834
  21 H :    0.154158    0.011092
  22 H :    0.153685    0.010841
  23 C :   -0.268432    0.000942
  24 H :    0.138935    0.000207
  25 H :    0.138274    0.000198
  26 C :   -0.257388   -0.000252
  27 H :    0.142518    0.000044
  28 H :    0.142630    0.000046
  29 C :   -0.509267   -0.000091
  30 H :    0.157419    0.000025
  31 H :    0.157435    0.000025
  32 C :   -0.538214   -0.043085
  33 H :    0.180920    0.001758
  34 H :    0.144653   -0.000176
  35 H :    0.143791   -0.000005
  36 H :    0.099400   -0.011394
Sum of atomic charges         :   -0.0000000

LOEWDIN ATOMIC CHARGES AND SPIN POPULATIONS
-------------------------------------------
   0 C :   -0.029512    0.012050
   1 C :   -0.024613    0.165546
   2 C :   -0.089872   -0.066142
   3 C :    0.002995    0.171479
   4 C :   -0.075865   -0.053609
   5 C :   -0.041778    0.180482
   6 C :   -0.045266   -0.061884
   7 H :    0.060562    0.001055
   8 H :    0.055578   -0.000517
   9 C :   -0.033486    0.604088
  10 H :    0.051089    0.003849
  11 C :   -0.088419    0.003917
  12 H :    0.056591    0.026759
  13 H :    0.056549    0.026670
  14 C :   -0.094553    0.001106
  15 H :    0.044476   -0.000062
  16 H :    0.044457   -0.000062
  17 C :   -0.084029   -0.000121
  18 H :    0.036701    0.000230
  19 H :    0.036710    0.000230
  20 C :   -0.049966    0.001715
  21 H :    0.062209    0.008833
  22 H :    0.062198    0.008644
  23 C :   -0.085692    0.000190
  24 H :    0.046462    0.000020
  25 H :    0.046262    0.000022
  26 C :   -0.096032    0.000002
  27 H :    0.043708    0.000059
  28 H :    0.043699    0.000060
  29 C :   -0.085505   -0.000034
  30 H :    0.036161    0.000016
  31 H :    0.036174    0.000017
  32 C :   -0.067025   -0.034716
  33 H :    0.048242   -0.000177
  34 H :    0.034308   -0.000086
  35 H :    0.033777   -0.000006
  36 H :    0.052704    0.000374

  Mayer bond orders larger than 0.100000
B(  0-C ,  4-C ) :   0.9103 B(  0-C , 32-C ) :   2.7020 B(  1-C ,  2-C ) :   1.2449
B(  1-C ,  5-C ) :   0.1164 B(  1-C ,  6-C ) :   1.5181 B(  1-C ,  9-C ) :   0.1684
B(  1-C , 36-H ) :   0.9819 B(  2-C ,  3-C ) :   1.2562 B(  2-C ,  4-C ) :   0.1221
B(  2-C ,  6-C ) :   0.1099 B(  2-C ,  9-C ) :   1.1962 B(  3-C ,  4-C ) :   1.4550
B(  3-C ,  7-H ) :   0.9806 B(  3-C ,  9-C ) :   0.1175 B(  4-C ,  5-C ) :   1.3483
B(  4-C ,  6-C ) :   0.1021 B(  5-C ,  6-C ) :   1.3924 B(  5-C , 20-C ) :   0.9534
B(  6-C ,  8-H ) :   0.9769 B(  9-C , 10-H ) :   1.0069 B(  9-C , 11-C ) :   0.9989
B( 11-C , 12-H ) :   0.9562 B( 11-C , 13-H ) :   0.9560 B( 11-C , 14-C ) :   0.9781
B( 14-C , 15-H ) :   0.9730 B( 14-C , 16-H ) :   0.9730 B( 14-C , 17-C ) :   0.9624
B( 17-C , 18-H ) :   0.9719 B( 17-C , 19-H ) :   0.9719 B( 17-C , 34-H ) :   0.9677
B( 20-C , 21-H ) :   0.9559 B( 20-C , 22-H ) :   0.9558 B( 20-C , 23-C ) :   1.0120
B( 23-C , 24-H ) :   0.9619 B( 23-C , 25-H ) :   0.9614 B( 23-C , 26-C ) :   0.9907
B( 26-C , 27-H ) :   0.9714 B( 26-C , 28-H ) :   0.9713 B( 26-C , 29-C ) :   0.9537
B( 29-C , 30-H ) :   0.9728 B( 29-C , 31-H ) :   0.9728 B( 29-C , 35-H ) :   0.9679
B( 32-C , 33-H ) :   0.9841

FINAL SINGLE POINT ENERGY      -621.921226529867

DIPOLE MOMENT
-------------
                                X             Y             Z
Electronic contribution:     -4.79031       2.15080      -0.05918
Nuclear contribution   :      4.97690      -2.15001       0.06175
                        -----------------------------------------
Total Dipole Moment    :      0.18660       0.00079       0.00257
                        -----------------------------------------
Magnitude (a.u.)       :      0.18662
Magnitude (Debye)      :      0.47434

Rotational constants in cm-1:     0.039573     0.005999     0.005245
Rotational constants in MHz :  1186.357256   179.855377   157.247625

CHEMICAL SHIELDING SUMMARY (ppm)  --  Orbital contribution
----------------------------------------------------------

  Nucleus  Element    Isotropic     Anisotropy
  -------  -------  ------------   ------------
      7       H           51.238         29.423
      8       H           36.543         29.193
     10       H           22.777          7.628
     12       H           62.977         10.805
     13       H           63.117         10.721
     15       H           17.643         17.321
     16       H           17.477         17.329
     18       H           18.786         12.460
     19       H           18.704         12.502
     21       H           53.009         24.639
     22       H           53.210         24.429
     24       H           61.750         10.772
     25       H           61.271         10.824
     27       H           24.630         17.389
     28       H           24.982         17.256
     30       H           16.552         12.937
     31       H           16.961         12.843
     33       H          -42.383        -46.513
     34       H          -70.687         15.200
     35       H          -63.993         19.425
     36       H           24.507         37.364

                             ****ORCA TERMINATED NORMALLY****
TOTAL RUN TIME: 0 days 0 hours 27 minutes 40 seconds 991 msec
