                         Program Version 5.0.4 -  RELEASE  -
|  1> ! B3LYP EPR-II AUTOAUX
|  2> %pal nprocs 16 end
|  3> *XYZFile 0 2 opt.xyz
|  4> %EPRNMR
|  5>         GTENSOR   TRUE
|  6>         NUCLEI    = ALL H {SHIFT, AISO, ADIP, AORB}
|  7> END
|  8>
|  9>                          ****END OF INPUT****

CARTESIAN COORDINATES (ANGSTROEM)
---------------------------------
  C     -2.934073   -0.018766   -0.033821
  C      1.296326    0.061617    0.042355
  C      0.590316    1.299012    0.023646
  C     -0.830012    1.218758   -0.002083
  C     -1.498941   -0.010710   -0.008376
  C     -0.774370   -1.238300    0.010896
  C      0.629305   -1.156514    0.035978
  H     -1.426643    2.131592   -0.017243
  H      1.218068   -2.074806    0.050925
  C      1.286599    2.534948    0.031266
  H      2.380846    2.491530    0.052874
  C      0.640774    3.887237    0.012787
  H     -0.012358    3.982869   -0.879700
  H     -0.049610    3.989014    0.876092
  C      1.643397    5.048244    0.030137
  H      2.282865    4.958144    0.927400
  H      2.320748    4.952086   -0.838264
  C      0.972655    6.422996    0.011073
  H      0.314265    6.559972    0.886339
  H      0.351320    6.553366   -0.891860
  C     -1.525236   -2.553953    0.005144
  H     -2.211934   -2.565966    0.872443
  H     -2.196235   -2.567265   -0.874138
  C     -0.682959   -3.832515    0.013733
  H     -0.008492   -3.844031   -0.862466
  H     -0.029866   -3.846912    0.905937
  C     -1.540346   -5.103812    0.002012
  H     -2.217942   -5.093520    0.875899
  H     -2.195918   -5.092106   -0.888500
  C     -0.711165   -6.390340    0.011269
  H     -0.071581   -6.448752    0.909014
  H     -0.048195   -6.446330   -0.869486
  C     -4.149637   -0.020449   -0.056778
  H     -5.221734   -0.017269   -0.080213
  H      1.717399    7.235047    0.023638
  H     -1.353742   -7.285750    0.001613
  H      2.389514    0.078501    0.062394

 Total Charge           Charge          ....    0
 Multiplicity           Mult            ....    2
 Number of Electrons    NEL             ....  117
 Basis Dimension        Dim             ....  419

ORBITAL ENERGIES
----------------
                 SPIN UP ORBITALS
  NO   OCC          E(Eh)            E(eV)
   0   1.0000     -10.217650      -278.0364
   1   1.0000     -10.208457      -277.7862
   2   1.0000     -10.202518      -277.6246
   3   1.0000     -10.202251      -277.6174
   4   1.0000     -10.197906      -277.4991
   5   1.0000     -10.197020      -277.4750
   6   1.0000     -10.196573      -277.4629
   7   1.0000     -10.193393      -277.3763
   8   1.0000     -10.191459      -277.3237
   9   1.0000     -10.188632      -277.2468
  10   1.0000     -10.185250      -277.1547
  11   1.0000     -10.184997      -277.1478
  12   1.0000     -10.181341      -277.0484
  13   1.0000     -10.181113      -277.0422
  14   1.0000     -10.174815      -276.8708
  15   1.0000     -10.172596      -276.8104
  16   1.0000      -0.865237       -23.5443
  17   1.0000      -0.813131       -22.1264
  18   1.0000      -0.792914       -21.5763
  19   1.0000      -0.779935       -21.2231
  20   1.0000      -0.762666       -20.7532
  21   1.0000      -0.729092       -19.8396
  22   1.0000      -0.724737       -19.7211
  23   1.0000      -0.694891       -18.9089
  24   1.0000      -0.652470       -17.7546
  25   1.0000      -0.622825       -16.9479
  26   1.0000      -0.611902       -16.6507
  27   1.0000      -0.587875       -15.9969
  28   1.0000      -0.577962       -15.7272
  29   1.0000      -0.558943       -15.2096
  30   1.0000      -0.527190       -14.3456
  31   1.0000      -0.495204       -13.4752
  32   1.0000      -0.472271       -12.8511
  33   1.0000      -0.468694       -12.7538
  34   1.0000      -0.462389       -12.5822
  35   1.0000      -0.461594       -12.5606
  36   1.0000      -0.427850       -11.6424
  37   1.0000      -0.425999       -11.5920
  38   1.0000      -0.422103       -11.4860
  39   1.0000      -0.419202       -11.4071
  40   1.0000      -0.409699       -11.1485
  41   1.0000      -0.395271       -10.7559
  42   1.0000      -0.386949       -10.5294
  43   1.0000      -0.375155       -10.2085
  44   1.0000      -0.374224       -10.1832
  45   1.0000      -0.362096        -9.8531
  46   1.0000      -0.347851        -9.4655
  47   1.0000      -0.347403        -9.4533
  48   1.0000      -0.337338        -9.1794
  49   1.0000      -0.330668        -8.9979
  50   1.0000      -0.330292        -8.9877
  51   1.0000      -0.324199        -8.8219
  52   1.0000      -0.321744        -8.7551
  53   1.0000      -0.320303        -8.7159
  54   1.0000      -0.308672        -8.3994
  55   1.0000      -0.273783        -7.4500
  56   1.0000      -0.267815        -7.2876
  57   1.0000      -0.237436        -6.4609
  58   1.0000      -0.171299        -4.6613
  59   0.0000      -0.034363        -0.9351
  60   0.0000       0.012946         0.3523
  61   0.0000       0.020735         0.5642
  62   0.0000       0.022711         0.6180
  63   0.0000       0.026963         0.7337

                 SPIN DOWN ORBITALS
  NO   OCC          E(Eh)            E(eV)
   0   1.0000     -10.219154      -278.0773
   1   1.0000     -10.204935      -277.6904
   2   1.0000     -10.204618      -277.6818
   3   1.0000     -10.202144      -277.6145
   4   1.0000     -10.194776      -277.4140
   5   1.0000     -10.193965      -277.3919
   6   1.0000     -10.193539      -277.3803
   7   1.0000     -10.192842      -277.3613
   8   1.0000     -10.189336      -277.2659
   9   1.0000     -10.186631      -277.1923
  10   1.0000     -10.185454      -277.1603
  11   1.0000     -10.184956      -277.1467
  12   1.0000     -10.181341      -277.0484
  13   1.0000     -10.181112      -277.0421
  14   1.0000     -10.174824      -276.8710
  15   1.0000     -10.172598      -276.8105
  16   1.0000      -0.861758       -23.4496
  17   1.0000      -0.807174       -21.9643
  18   1.0000      -0.791404       -21.5352
  19   1.0000      -0.779266       -21.2049
  20   1.0000      -0.760486       -20.6939
  21   1.0000      -0.725551       -19.7432
  22   1.0000      -0.722099       -19.6493
  23   1.0000      -0.692585       -18.8462
  24   1.0000      -0.649273       -17.6676
  25   1.0000      -0.620187       -16.8762
  26   1.0000      -0.606305       -16.4984
  27   1.0000      -0.586760       -15.9665
  28   1.0000      -0.575761       -15.6673
  29   1.0000      -0.556371       -15.1396
  30   1.0000      -0.525577       -14.3017
  31   1.0000      -0.492694       -13.4069
  32   1.0000      -0.470065       -12.7911
  33   1.0000      -0.467858       -12.7311
  34   1.0000      -0.460587       -12.5332
  35   1.0000      -0.458120       -12.4661
  36   1.0000      -0.426070       -11.5939
  37   1.0000      -0.424293       -11.5456
  38   1.0000      -0.421034       -11.4569
  39   1.0000      -0.416711       -11.3393
  40   1.0000      -0.409230       -11.1357
  41   1.0000      -0.387530       -10.5452
  42   1.0000      -0.385637       -10.4937
  43   1.0000      -0.372079       -10.1248
  44   1.0000      -0.370595       -10.0844
  45   1.0000      -0.361073        -9.8253
  46   1.0000      -0.346368        -9.4251
  47   1.0000      -0.344796        -9.3824
  48   1.0000      -0.335157        -9.1201
  49   1.0000      -0.330016        -8.9802
  50   1.0000      -0.328298        -8.9335
  51   1.0000      -0.323706        -8.8085
  52   1.0000      -0.321136        -8.7385
  53   1.0000      -0.319428        -8.6921
  54   1.0000      -0.306318        -8.3353
  55   1.0000      -0.273679        -7.4472
  56   1.0000      -0.252640        -6.8747
  57   1.0000      -0.229184        -6.2364
  58   0.0000      -0.075369        -2.0509
  59   0.0000      -0.025615        -0.6970
  60   0.0000       0.021045         0.5727
  61   0.0000       0.022920         0.6237
  62   0.0000       0.027285         0.7425

MULLIKEN ATOMIC CHARGES AND SPIN POPULATIONS
--------------------------------------------
   0 C :    0.002676    0.022808
   1 C :   -0.370021    0.204366
   2 C :    0.649457   -0.129364
   3 C :   -0.479748    0.213422
   4 C :    0.455636   -0.087301
   5 C :    0.246965    0.225653
   6 C :   -0.219681   -0.105373
   7 H :    0.127289   -0.011739
   8 H :    0.113213    0.004921
   9 C :   -0.318358    0.728136
  10 H :    0.119953   -0.038384
  11 C :   -0.262502   -0.047561
  12 H :    0.149728    0.032726
  13 H :    0.149487    0.032636
  14 C :   -0.286345    0.002278
  15 H :    0.152266   -0.000166
  16 H :    0.152183   -0.000162
  17 C :   -0.506889   -0.000834
  18 H :    0.157860    0.000190
  19 H :    0.157865    0.000189
  20 C :   -0.371346   -0.016812
  21 H :    0.154158    0.011087
  22 H :    0.153685    0.010836
  23 C :   -0.268439    0.000940
  24 H :    0.138938    0.000207
  25 H :    0.138277    0.000198
  26 C :   -0.257392   -0.000252
  27 H :    0.142518    0.000044
  28 H :    0.142630    0.000046
  29 C :   -0.509254   -0.000090
  30 H :    0.157418    0.000025
  31 H :    0.157434    0.000025
  32 C :   -0.538410   -0.042875
  33 H :    0.180937    0.001737
  34 H :    0.144652   -0.000176
  35 H :    0.143789   -0.000005
  36 H :    0.099370   -0.011379
Sum of atomic charges         :   -0.0000000

LOEWDIN ATOMIC CHARGES AND SPIN POPULATIONS
-------------------------------------------
   0 C :   -0.029383    0.011925
   1 C :   -0.024519    0.165481
   2 C :   -0.089880   -0.066109
   3 C :    0.002944    0.171406
   4 C :   -0.075832   -0.053542
   5 C :   -0.041818    0.180398
   6 C :   -0.045247   -0.061823
   7 H :    0.060563    0.001060
   8 H :    0.055570   -0.000519
   9 C :   -0.033515    0.604126
  10 H :    0.051094    0.003848
  11 C :   -0.088432    0.003915
  12 H :    0.056594    0.026761
  13 H :    0.056551    0.026672
  14 C :   -0.094550    0.001106
  15 H :    0.044477   -0.000062
  16 H :    0.044457   -0.000062
  17 C :   -0.084021   -0.000121
  18 H :    0.036700    0.000230
  19 H :    0.036708    0.000230
  20 C :   -0.049969    0.001721
  21 H :    0.062210    0.008830
  22 H :    0.062199    0.008641
  23 C :   -0.085697    0.000190
  24 H :    0.046464    0.000020
  25 H :    0.046264    0.000022
  26 C :   -0.096034    0.000002
  27 H :    0.043708    0.000059
  28 H :    0.043699    0.000060
  29 C :   -0.085499   -0.000034
  30 H :    0.036160    0.000016
  31 H :    0.036173    0.000017
  32 C :   -0.067158   -0.034566
  33 H :    0.048245   -0.000183
  34 H :    0.034308   -0.000086
  35 H :    0.033776   -0.000006
  36 H :    0.052691    0.000378

  Mayer bond orders larger than 0.100000
B(  0-C ,  4-C ) :   0.9103 B(  0-C , 32-C ) :   2.7019 B(  1-C ,  2-C ) :   1.2450
B(  1-C ,  5-C ) :   0.1164 B(  1-C ,  6-C ) :   1.5181 B(  1-C ,  9-C ) :   0.1684
B(  1-C , 36-H ) :   0.9819 B(  2-C ,  3-C ) :   1.2562 B(  2-C ,  4-C ) :   0.1221
B(  2-C ,  6-C ) :   0.1099 B(  2-C ,  9-C ) :   1.1961 B(  3-C ,  4-C ) :   1.4550
B(  3-C ,  7-H ) :   0.9805 B(  3-C ,  9-C ) :   0.1175 B(  4-C ,  5-C ) :   1.3483
B(  4-C ,  6-C ) :   0.1020 B(  5-C ,  6-C ) :   1.3924 B(  5-C , 20-C ) :   0.9534
B(  6-C ,  8-H ) :   0.9769 B(  9-C , 10-H ) :   1.0068 B(  9-C , 11-C ) :   0.9989
B( 11-C , 12-H ) :   0.9562 B( 11-C , 13-H ) :   0.9560 B( 11-C , 14-C ) :   0.9781
B( 14-C , 15-H ) :   0.9730 B( 14-C , 16-H ) :   0.9730 B( 14-C , 17-C ) :   0.9624
B( 17-C , 18-H ) :   0.9719 B( 17-C , 19-H ) :   0.9719 B( 17-C , 34-H ) :   0.9677
B( 20-C , 21-H ) :   0.9559 B( 20-C , 22-H ) :   0.9558 B( 20-C , 23-C ) :   1.0120
B( 23-C , 24-H ) :   0.9619 B( 23-C , 25-H ) :   0.9614 B( 23-C , 26-C ) :   0.9907
B( 26-C , 27-H ) :   0.9714 B( 26-C , 28-H ) :   0.9713 B( 26-C , 29-C ) :   0.9537
B( 29-C , 30-H ) :   0.9728 B( 29-C , 31-H ) :   0.9728 B( 29-C , 35-H ) :   0.9679
B( 32-C , 33-H ) :   0.9841

FINAL SINGLE POINT ENERGY      -621.921224819964

DIPOLE MOMENT
-------------
                                X             Y             Z
Electronic contribution:     -4.78981       2.15070      -0.05917
Nuclear contribution   :      4.97690      -2.15001       0.06175
                        -----------------------------------------
Total Dipole Moment    :      0.18710       0.00069       0.00258
                        -----------------------------------------
Magnitude (a.u.)       :      0.18712
Magnitude (Debye)      :      0.47561

Rotational constants in cm-1:     0.039573     0.005999     0.005245
Rotational constants in MHz :  1186.357256   179.855377   157.247625

CHEMICAL SHIELDING SUMMARY (ppm)  --  Orbital contribution
----------------------------------------------------------

  Nucleus  Element    Isotropic     Anisotropy
  -------  -------  ------------   ------------
      7       H           24.357         11.519
      8       H           24.767         10.398
     10       H           26.265          9.103
     12       H           29.194          4.432
     13       H           29.191          4.441
     15       H           29.978          6.919
     16       H           29.977          6.928
     18       H           30.774          7.943
     19       H           30.774          7.940
     21       H           28.813          5.750
     22       H           28.804          5.900
     24       H           30.057          4.835
     25       H           30.044          4.867
     27       H           30.148          6.408
     28       H           30.148          6.420
     30       H           30.748          8.090
     31       H           30.748          8.080
     33       H           28.589         10.883
     34       H           30.528          9.965
     35       H           30.506         10.171
     36       H           24.863          7.561

                             ****ORCA TERMINATED NORMALLY****
TOTAL RUN TIME: 0 days 0 hours 27 minutes 57 seconds 441 msec
