                         Program Version 4.2.1 -  RELEASE  -
|  1> ! B3LYP cc-pVDZ OPT
|  2> %pal nprocs 16 end
|  3> *XYZFile 0 2 Hshift.xyz
|  4>
|  5>                          ****END OF INPUT****
 Total Charge           Charge          ....    0
 Multiplicity           Mult            ....    2
 Number of Electrons    NEL             ....  117
FINAL SINGLE POINT ENERGY      -621.833960653963
FINAL SINGLE POINT ENERGY      -621.844198754288
FINAL SINGLE POINT ENERGY      -621.849832922528
FINAL SINGLE POINT ENERGY      -621.853765016082
FINAL SINGLE POINT ENERGY      -621.856652818159
FINAL SINGLE POINT ENERGY      -621.858514491637
FINAL SINGLE POINT ENERGY      -621.859335031169
FINAL SINGLE POINT ENERGY      -621.859411329603
FINAL SINGLE POINT ENERGY      -621.859433083600
FINAL SINGLE POINT ENERGY      -621.859439402492
FINAL SINGLE POINT ENERGY      -621.859474520762
FINAL SINGLE POINT ENERGY      -621.859528640477
FINAL SINGLE POINT ENERGY      -621.859578962333
FINAL SINGLE POINT ENERGY      -621.859595255050
FINAL SINGLE POINT ENERGY      -621.859605647107
FINAL SINGLE POINT ENERGY      -621.859613002994
FINAL SINGLE POINT ENERGY      -621.859622239794
FINAL SINGLE POINT ENERGY      -621.859628303890
FINAL SINGLE POINT ENERGY      -621.859630796935
                    ***********************HURRAY********************

CARTESIAN COORDINATES (ANGSTROEM)
---------------------------------
  C     -2.935166   -0.017246   -0.032888
  C      1.295313    0.060651    0.045739
  C      0.589785    1.298332    0.025955
  C     -0.830449    1.218906   -0.000585
  C     -1.499978   -0.010143   -0.006372
  C     -0.775908   -1.238156    0.013452
  C      0.627794   -1.157123    0.039214
  H     -1.426108    2.132214   -0.017029
  H      1.215783   -2.075791    0.055050
  C      1.286786    2.533866    0.033043
  H      2.381427    2.490191    0.055741
  C      0.641216    3.886193    0.012891
  H     -0.011880    3.981090   -0.879853
  H     -0.049327    3.989324    0.876077
  C      1.643702    5.046978    0.028924
  H      2.283122    4.957953    0.926700
  H      2.321231    4.949586   -0.839644
  C      0.972891    6.421464    0.008098
  H      0.314322    6.559549    0.883246
  H      0.351342    6.550662   -0.894986
  C     -1.527122   -2.553741    0.007293
  H     -2.213093   -2.566958    0.875677
  H     -2.199092   -2.566540   -0.871721
  C     -0.683994   -3.831530    0.013546
  H     -0.010146   -3.841099   -0.863718
  H     -0.029795   -3.846201    0.905437
  C     -1.539482   -5.103659    0.001131
  H     -2.216314   -5.095805    0.876164
  H     -2.196052   -5.092055   -0.889094
  C     -0.708143   -6.388363    0.007758
  H     -0.067343   -6.447050    0.904868
  H     -0.045823   -6.442230   -0.873933
  C     -4.150683   -0.018079   -0.056829
  H     -5.222897   -0.014023   -0.081393
  H      1.717705    7.233365    0.019662
  H     -1.349094   -7.284712   -0.002416
  H      2.388872    0.077049    0.066731

 Multiplicity           Mult            ....    2
 Number of Electrons    NEL             ....  117
 Basis Dimension        Dim             ....  329

ORBITAL ENERGIES
----------------
                 SPIN UP ORBITALS
  NO   OCC          E(Eh)            E(eV)
   0   1.0000     -10.207274      -277.7540
   1   1.0000     -10.199217      -277.5348
   2   1.0000     -10.192083      -277.3407
   3   1.0000     -10.191696      -277.3302
   4   1.0000     -10.190601      -277.3004
   5   1.0000     -10.189549      -277.2717
   6   1.0000     -10.188270      -277.2369
   7   1.0000     -10.187202      -277.2079
   8   1.0000     -10.184578      -277.1365
   9   1.0000     -10.184260      -277.1278
  10   1.0000     -10.184190      -277.1259
  11   1.0000     -10.182698      -277.0853
  12   1.0000     -10.181024      -277.0398
  13   1.0000     -10.180833      -277.0345
  14   1.0000     -10.177057      -276.9318
  15   1.0000     -10.175380      -276.8862
  16   1.0000      -0.865806       -23.5598
  17   1.0000      -0.814583       -22.1659
  18   1.0000      -0.795099       -21.6358
  19   1.0000      -0.780107       -21.2278
  20   1.0000      -0.763735       -20.7823
  21   1.0000      -0.730758       -19.8849
  22   1.0000      -0.723554       -19.6889
  23   1.0000      -0.696376       -18.9494
  24   1.0000      -0.653676       -17.7874
  25   1.0000      -0.622633       -16.9427
  26   1.0000      -0.613036       -16.6816
  27   1.0000      -0.588423       -16.0118
  28   1.0000      -0.578906       -15.7528
  29   1.0000      -0.559221       -15.2172
  30   1.0000      -0.525875       -14.3098
  31   1.0000      -0.494718       -13.4620
  32   1.0000      -0.472681       -12.8623
  33   1.0000      -0.469477       -12.7751
  34   1.0000      -0.462279       -12.5792
  35   1.0000      -0.461893       -12.5688
  36   1.0000      -0.428655       -11.6643
  37   1.0000      -0.426213       -11.5978
  38   1.0000      -0.422689       -11.5020
  39   1.0000      -0.419652       -11.4193
  40   1.0000      -0.410428       -11.1683
  41   1.0000      -0.395419       -10.7599
  42   1.0000      -0.387855       -10.5541
  43   1.0000      -0.375462       -10.2169
  44   1.0000      -0.374401       -10.1880
  45   1.0000      -0.363047        -9.8790
  46   1.0000      -0.348187        -9.4746
  47   1.0000      -0.347794        -9.4640
  48   1.0000      -0.338394        -9.2082
  49   1.0000      -0.331494        -9.0204
  50   1.0000      -0.330615        -8.9965
  51   1.0000      -0.325229        -8.8499
  52   1.0000      -0.322725        -8.7818
  53   1.0000      -0.321343        -8.7442
  54   1.0000      -0.307987        -8.3808
  55   1.0000      -0.271929        -7.3996
  56   1.0000      -0.267951        -7.2913
  57   1.0000      -0.236220        -6.4279
  58   1.0000      -0.171395        -4.6639
  59   0.0000      -0.031592        -0.8597
  60   0.0000       0.015198         0.4136
  61   0.0000       0.047978         1.3055
  62   0.0000       0.062051         1.6885
  63   0.0000       0.062267         1.6944

                 SPIN DOWN ORBITALS
  NO   OCC          E(Eh)            E(eV)
   0   1.0000     -10.208803      -277.7956
   1   1.0000     -10.195682      -277.4386
   2   1.0000     -10.194269      -277.4002
   3   1.0000     -10.187924      -277.2275
   4   1.0000     -10.187900      -277.2269
   5   1.0000     -10.187464      -277.2150
   6   1.0000     -10.186420      -277.1866
   7   1.0000     -10.185661      -277.1659
   8   1.0000     -10.184789      -277.1422
   9   1.0000     -10.184216      -277.1266
  10   1.0000     -10.183275      -277.1010
  11   1.0000     -10.181398      -277.0499
  12   1.0000     -10.181024      -277.0397
  13   1.0000     -10.180830      -277.0345
  14   1.0000     -10.177065      -276.9320
  15   1.0000     -10.175382      -276.8862
  16   1.0000      -0.862311       -23.4647
  17   1.0000      -0.808738       -22.0069
  18   1.0000      -0.793490       -21.5920
  19   1.0000      -0.779397       -21.2085
  20   1.0000      -0.761561       -20.7231
  21   1.0000      -0.726619       -19.7723
  22   1.0000      -0.721517       -19.6335
  23   1.0000      -0.694070       -18.8866
  24   1.0000      -0.650537       -17.7020
  25   1.0000      -0.619956       -16.8699
  26   1.0000      -0.607415       -16.5286
  27   1.0000      -0.587326       -15.9820
  28   1.0000      -0.576716       -15.6932
  29   1.0000      -0.556547       -15.1444
  30   1.0000      -0.524183       -14.2637
  31   1.0000      -0.492316       -13.3966
  32   1.0000      -0.470573       -12.8049
  33   1.0000      -0.468661       -12.7529
  34   1.0000      -0.460446       -12.5294
  35   1.0000      -0.458402       -12.4738
  36   1.0000      -0.426337       -11.6012
  37   1.0000      -0.425083       -11.5671
  38   1.0000      -0.421736       -11.4760
  39   1.0000      -0.417169       -11.3518
  40   1.0000      -0.409923       -11.1546
  41   1.0000      -0.387568       -10.5462
  42   1.0000      -0.386600       -10.5199
  43   1.0000      -0.372383       -10.1331
  44   1.0000      -0.370804       -10.0901
  45   1.0000      -0.362034        -9.8515
  46   1.0000      -0.346770        -9.4361
  47   1.0000      -0.345135        -9.3916
  48   1.0000      -0.336316        -9.1516
  49   1.0000      -0.330844        -9.0027
  50   1.0000      -0.328627        -8.9424
  51   1.0000      -0.324719        -8.8361
  52   1.0000      -0.322147        -8.7661
  53   1.0000      -0.320427        -8.7192
  54   1.0000      -0.305566        -8.3149
  55   1.0000      -0.271846        -7.3973
  56   1.0000      -0.252818        -6.8795
  57   1.0000      -0.228010        -6.2045
  58   0.0000      -0.074692        -2.0325
  59   0.0000      -0.022517        -0.6127
  60   0.0000       0.032945         0.8965
  61   0.0000       0.048399         1.3170
  62   0.0000       0.062148         1.6911

MULLIKEN ATOMIC CHARGES AND SPIN POPULATIONS
--------------------------------------------
   0 C :    0.597456    0.027407
   1 C :    0.019412    0.218160
   2 C :    0.083276   -0.160568
   3 C :    0.001825    0.222747
   4 C :   -0.047481   -0.104272
   5 C :   -0.088031    0.240868
   6 C :    0.033378   -0.113602
   7 H :   -0.052259   -0.009474
   8 H :   -0.042232    0.004252
   9 C :   -0.076552    0.738067
  10 H :   -0.035519   -0.032375
  11 C :    0.029190   -0.050582
  12 H :    0.027440    0.033319
  13 H :    0.028054    0.033275
  14 C :   -0.042641    0.002223
  15 H :    0.011228    0.000577
  16 H :    0.011984    0.000564
  17 C :    0.003142   -0.000166
  18 H :    0.017711    0.000162
  19 H :    0.017334    0.000162
  20 C :    0.040734   -0.019270
  21 H :    0.032486    0.010464
  22 H :    0.031988    0.010173
  23 C :   -0.037700    0.000885
  24 H :    0.014517    0.000166
  25 H :    0.014350    0.000141
  26 C :   -0.024265    0.000020
  27 H :    0.006416    0.000058
  28 H :    0.005918    0.000059
  29 C :    0.003415   -0.000082
  30 H :    0.016031    0.000023
  31 H :    0.016379    0.000023
  32 C :   -0.573050   -0.045494
  33 H :   -0.025203    0.001820
  34 H :    0.014812   -0.000211
  35 H :    0.011792   -0.000006
  36 H :   -0.045334   -0.009511
Sum of atomic charges         :   -0.0000000

LOEWDIN ATOMIC CHARGES AND SPIN POPULATIONS
-------------------------------------------
   0 C :   -0.000314    0.012994
   1 C :   -0.006883    0.167826
   2 C :   -0.054174   -0.067647
   3 C :    0.007379    0.170366
   4 C :   -0.057439   -0.054820
   5 C :   -0.003360    0.180034
   6 C :   -0.032884   -0.062687
   7 H :    0.027032    0.000864
   8 H :    0.026862   -0.000451
   9 C :    0.001627    0.607160
  10 H :    0.016732    0.003008
  11 C :   -0.055534    0.005906
  12 H :    0.033991    0.026062
  13 H :    0.034065    0.026023
  14 C :   -0.046595    0.001298
  15 H :    0.024917    0.000357
  16 H :    0.025040    0.000349
  17 C :   -0.067713   -0.000016
  18 H :    0.025653    0.000268
  19 H :    0.025585    0.000269
  20 C :   -0.036865    0.002240
  21 H :    0.039533    0.008243
  22 H :    0.039384    0.008016
  23 C :   -0.044187    0.000156
  24 H :    0.023634    0.000053
  25 H :    0.023476    0.000046
  26 C :   -0.047084    0.000015
  27 H :    0.024167    0.000094
  28 H :    0.024077    0.000094
  29 C :   -0.067586   -0.000039
  30 H :    0.024819    0.000016
  31 H :    0.024902    0.000016
  32 C :   -0.054920   -0.035974
  33 H :    0.021740   -0.000066
  34 H :    0.028511   -0.000114
  35 H :    0.027306   -0.000007
  36 H :    0.025105    0.000051

  Mayer bond orders larger than 0.100000
B(  0-C ,  4-C ) :   0.9078 B(  0-C , 32-C ) :   2.1940 B(  1-C ,  2-C ) :   1.2958
B(  1-C ,  6-C ) :   1.4681 B(  1-C , 36-H ) :   0.9327 B(  2-C ,  3-C ) :   1.3058
B(  2-C ,  9-C ) :   1.3064 B(  3-C ,  4-C ) :   1.4399 B(  3-C ,  7-H ) :   0.9283
B(  4-C ,  5-C ) :   1.3660 B(  5-C ,  6-C ) :   1.4118 B(  5-C , 20-C ) :   1.0930
B(  6-C ,  8-H ) :   0.9191 B(  9-C , 10-H ) :   0.9308 B(  9-C , 11-C ) :   1.0804
B( 11-C , 12-H ) :   0.9140 B( 11-C , 13-H ) :   0.9141 B( 11-C , 14-C ) :   1.0710
B( 14-C , 15-H ) :   0.9445 B( 14-C , 16-H ) :   0.9446 B( 14-C , 17-C ) :   1.1057
B( 17-C , 18-H ) :   0.9657 B( 17-C , 19-H ) :   0.9657 B( 17-C , 34-H ) :   0.9616
B( 20-C , 21-H ) :   0.8985 B( 20-C , 22-H ) :   0.8985 B( 20-C , 23-C ) :   1.0992
B( 23-C , 24-H ) :   0.9304 B( 23-C , 25-H ) :   0.9299 B( 23-C , 26-C ) :   1.0751
B( 26-C , 27-H ) :   0.9418 B( 26-C , 28-H ) :   0.9417 B( 26-C , 29-C ) :   1.1036
B( 29-C , 30-H ) :   0.9666 B( 29-C , 31-H ) :   0.9666 B( 29-C , 35-H ) :   0.9628
B( 32-C , 33-H ) :   1.1027

FINAL SINGLE POINT ENERGY      -621.859631342568

DIPOLE MOMENT
-------------
                                X             Y             Z
Electronic contribution:     -4.84731       2.14987      -0.03813
Nuclear contribution   :      4.98876      -2.15176       0.04000
                        -----------------------------------------
Total Dipole Moment    :      0.14146      -0.00189       0.00187
                        -----------------------------------------
Magnitude (a.u.)       :      0.14148
Magnitude (Debye)      :      0.35962

Rotational constants in cm-1:     0.039542     0.006002     0.005247
Rotational constants in MHz :  1185.439831   179.939804   157.297060

                             ****ORCA TERMINATED NORMALLY****
TOTAL RUN TIME: 0 days 0 hours 20 minutes 58 seconds 836 msec
