                         Program Version 5.0.4 -  RELEASE  -
|  1> ! B3LYP EPR-II OPT
|  2> %pal nprocs 16 end
|  3> *XYZFile 0 2 model.xyz
|  4>
|  5>                          ****END OF INPUT****
 Total Charge           Charge          ....    0
 Multiplicity           Mult            ....    2
 Number of Electrons    NEL             ....  117
FINAL SINGLE POINT ENERGY      -621.921730192453
FINAL SINGLE POINT ENERGY      -621.922618921536
FINAL SINGLE POINT ENERGY      -621.922665411245
FINAL SINGLE POINT ENERGY      -621.922678531738
FINAL SINGLE POINT ENERGY      -621.922680118562
                    ***********************HURRAY********************

CARTESIAN COORDINATES (ANGSTROEM)
---------------------------------
  C     -2.943722   -0.016991   -0.034021
  C      1.296695    0.060298    0.032841
  C      0.587353    1.301631    0.016913
  C     -0.836879    1.224848   -0.005828
  C     -1.505465   -0.009021   -0.011491
  C     -0.782186   -1.240370    0.005053
  C      0.626187   -1.161313    0.026992
  H     -1.428855    2.133872   -0.018797
  H      1.209869   -2.075998    0.039720
  C      1.288952    2.539403    0.024368
  H      2.376931    2.497568    0.042798
  C      0.641340    3.898229    0.008650
  H      0.003029    3.999589   -0.883878
  H     -0.042119    3.998247    0.867145
  C      1.653991    5.058367    0.035927
  H      2.281175    4.965743    0.931881
  H      2.327242    4.967521   -0.826191
  C      0.980438    6.440706    0.019529
  H      0.324246    6.569689    0.887703
  H      0.369154    6.570490   -0.880724
  C     -1.536448   -2.559965   -0.000484
  H     -2.216592   -2.572581    0.862390
  H     -2.195034   -2.577891   -0.879766
  C     -0.683713   -3.838537    0.014084
  H     -0.015200   -3.852723   -0.857175
  H     -0.040135   -3.849399    0.903990
  C     -1.543411   -5.115692    0.004753
  H     -2.214933   -5.105554    0.873519
  H     -2.188987   -5.110202   -0.883502
  C     -0.704208   -6.405133    0.020515
  H     -0.072588   -6.452980    0.914827
  H     -0.045503   -6.456771   -0.853815
  C     -4.163750   -0.026494   -0.054089
  H     -5.229461   -0.029959   -0.073501
  H      1.722863    7.245059    0.038689
  H     -1.341129   -7.295750    0.012738
  H      2.384255    0.078932    0.050170

 Multiplicity           Mult            ....    2
 Number of Electrons    NEL             ....  117
 Basis Dimension        Dim             ....  419

ORBITAL ENERGIES
----------------
                 SPIN UP ORBITALS
  NO   OCC          E(Eh)            E(eV)
   0   1.0000     -10.218651      -278.0636
   1   1.0000     -10.209280      -277.8086
   2   1.0000     -10.203469      -277.6505
   3   1.0000     -10.203332      -277.6468
   4   1.0000     -10.198201      -277.5072
   5   1.0000     -10.197115      -277.4776
   6   1.0000     -10.196998      -277.4744
   7   1.0000     -10.193433      -277.3774
   8   1.0000     -10.191929      -277.3365
   9   1.0000     -10.187423      -277.2139
  10   1.0000     -10.184302      -277.1289
  11   1.0000     -10.183628      -277.1106
  12   1.0000     -10.180015      -277.0123
  13   1.0000     -10.179797      -277.0064
  14   1.0000     -10.172595      -276.8104
  15   1.0000     -10.170361      -276.7496
  16   1.0000      -0.863307       -23.4918
  17   1.0000      -0.811677       -22.0868
  18   1.0000      -0.791788       -21.5456
  19   1.0000      -0.778783       -21.1918
  20   1.0000      -0.761682       -20.7264
  21   1.0000      -0.728484       -19.8230
  22   1.0000      -0.723993       -19.7008
  23   1.0000      -0.694797       -18.9064
  24   1.0000      -0.652783       -17.7631
  25   1.0000      -0.622830       -16.9481
  26   1.0000      -0.612931       -16.6787
  27   1.0000      -0.588927       -16.0255
  28   1.0000      -0.579640       -15.7728
  29   1.0000      -0.560103       -15.2412
  30   1.0000      -0.528172       -14.3723
  31   1.0000      -0.495134       -13.4733
  32   1.0000      -0.471753       -12.8371
  33   1.0000      -0.469559       -12.7774
  34   1.0000      -0.462677       -12.5901
  35   1.0000      -0.462549       -12.5866
  36   1.0000      -0.427238       -11.6257
  37   1.0000      -0.425443       -11.5769
  38   1.0000      -0.422178       -11.4880
  39   1.0000      -0.420233       -11.4351
  40   1.0000      -0.409892       -11.1537
  41   1.0000      -0.396437       -10.7876
  42   1.0000      -0.386548       -10.5185
  43   1.0000      -0.375319       -10.2130
  44   1.0000      -0.374573       -10.1926
  45   1.0000      -0.361796        -9.8450
  46   1.0000      -0.349579        -9.5125
  47   1.0000      -0.347378        -9.4526
  48   1.0000      -0.336141        -9.1468
  49   1.0000      -0.332604        -9.0506
  50   1.0000      -0.330398        -8.9906
  51   1.0000      -0.324155        -8.8207
  52   1.0000      -0.323985        -8.8161
  53   1.0000      -0.319342        -8.6897
  54   1.0000      -0.308237        -8.3875
  55   1.0000      -0.273067        -7.4305
  56   1.0000      -0.267734        -7.2854
  57   1.0000      -0.237023        -6.4497
  58   1.0000      -0.171645        -4.6707
  59   0.0000      -0.035048        -0.9537
  60   0.0000       0.012022         0.3271
  61   0.0000       0.021011         0.5717
  62   0.0000       0.023268         0.6331
  63   0.0000       0.027603         0.7511

                 SPIN DOWN ORBITALS
  NO   OCC          E(Eh)            E(eV)
   0   1.0000     -10.220189      -278.1055
   1   1.0000     -10.205738      -277.7122
   2   1.0000     -10.205730      -277.7120
   3   1.0000     -10.203062      -277.6394
   4   1.0000     -10.195028      -277.4208
   5   1.0000     -10.194042      -277.3940
   6   1.0000     -10.194039      -277.3939
   7   1.0000     -10.193353      -277.3752
   8   1.0000     -10.188112      -277.2326
   9   1.0000     -10.186581      -277.1910
  10   1.0000     -10.184503      -277.1344
  11   1.0000     -10.183589      -277.1096
  12   1.0000     -10.180014      -277.0123
  13   1.0000     -10.179797      -277.0064
  14   1.0000     -10.172605      -276.8107
  15   1.0000     -10.170363      -276.7496
  16   1.0000      -0.859836       -23.3973
  17   1.0000      -0.805758       -21.9258
  18   1.0000      -0.790280       -21.5046
  19   1.0000      -0.778104       -21.1733
  20   1.0000      -0.759489       -20.6668
  21   1.0000      -0.724932       -19.7264
  22   1.0000      -0.721403       -19.6304
  23   1.0000      -0.692541       -18.8450
  24   1.0000      -0.649566       -17.6756
  25   1.0000      -0.620169       -16.8757
  26   1.0000      -0.607335       -16.5264
  27   1.0000      -0.587805       -15.9950
  28   1.0000      -0.577413       -15.7122
  29   1.0000      -0.557432       -15.1685
  30   1.0000      -0.526624       -14.3302
  31   1.0000      -0.492592       -13.4041
  32   1.0000      -0.469444       -12.7742
  33   1.0000      -0.468744       -12.7552
  34   1.0000      -0.460843       -12.5402
  35   1.0000      -0.459239       -12.4965
  36   1.0000      -0.426233       -11.5984
  37   1.0000      -0.423027       -11.5112
  38   1.0000      -0.421045       -11.4572
  39   1.0000      -0.417881       -11.3711
  40   1.0000      -0.409465       -11.1421
  41   1.0000      -0.389052       -10.5867
  42   1.0000      -0.385147       -10.4804
  43   1.0000      -0.372314       -10.1312
  44   1.0000      -0.370920       -10.0933
  45   1.0000      -0.360793        -9.8177
  46   1.0000      -0.346452        -9.4274
  47   1.0000      -0.346389        -9.4257
  48   1.0000      -0.333971        -9.0878
  49   1.0000      -0.330714        -8.9992
  50   1.0000      -0.329712        -8.9719
  51   1.0000      -0.323632        -8.8065
  52   1.0000      -0.323429        -8.8009
  53   1.0000      -0.318498        -8.6668
  54   1.0000      -0.305661        -8.3175
  55   1.0000      -0.272974        -7.4280
  56   1.0000      -0.252428        -6.8689
  57   1.0000      -0.228772        -6.2252
  58   0.0000      -0.075390        -2.0515
  59   0.0000      -0.026283        -0.7152
  60   0.0000       0.021324         0.5803
  61   0.0000       0.023481         0.6390
  62   0.0000       0.027911         0.7595

MULLIKEN ATOMIC CHARGES AND SPIN POPULATIONS
--------------------------------------------
   0 C :   -0.002948    0.024555
   1 C :   -0.367271    0.206971
   2 C :    0.638344   -0.132370
   3 C :   -0.473821    0.216306
   4 C :    0.453603   -0.089503
   5 C :    0.239497    0.228043
   6 C :   -0.216956   -0.107757
   7 H :    0.128469   -0.011818
   8 H :    0.114179    0.005015
   9 C :   -0.318707    0.731645
  10 H :    0.120873   -0.038244
  11 C :   -0.266281   -0.046709
  12 H :    0.152250    0.031195
  13 H :    0.151554    0.030686
  14 C :   -0.292528    0.002188
  15 H :    0.154740   -0.000146
  16 H :    0.154392   -0.000136
  17 C :   -0.509161   -0.000849
  18 H :    0.159740    0.000178
  19 H :    0.159712    0.000178
  20 C :   -0.373500   -0.016696
  21 H :    0.156161    0.010540
  22 H :    0.155983    0.010458
  23 C :   -0.272959    0.000936
  24 H :    0.141282    0.000196
  25 H :    0.141098    0.000192
  26 C :   -0.265106   -0.000260
  27 H :    0.145123    0.000044
  28 H :    0.145202    0.000044
  29 C :   -0.511083   -0.000090
  30 H :    0.159202    0.000023
  31 H :    0.159185    0.000023
  32 C :   -0.533675   -0.045060
  33 H :    0.181962    0.001847
  34 H :    0.145924   -0.000173
  35 H :    0.145010   -0.000005
  36 H :    0.100511   -0.011444
Sum of atomic charges         :   -0.0000000

LOEWDIN ATOMIC CHARGES AND SPIN POPULATIONS
-------------------------------------------
   0 C :   -0.028124    0.013125
   1 C :   -0.022803    0.167467
   2 C :   -0.087613   -0.068431
   3 C :    0.003930    0.173636
   4 C :   -0.075126   -0.055087
   5 C :   -0.040210    0.182152
   6 C :   -0.043098   -0.063707
   7 H :    0.058243    0.001212
   8 H :    0.053133   -0.000599
   9 C :   -0.031032    0.606969
  10 H :    0.048290    0.004498
  11 C :   -0.083288    0.003858
  12 H :    0.053994    0.025653
  13 H :    0.053803    0.025196
  14 C :   -0.088412    0.001066
  15 H :    0.041761   -0.000042
  16 H :    0.041682   -0.000043
  17 C :   -0.077751   -0.000161
  18 H :    0.034290    0.000213
  19 H :    0.034299    0.000215
  20 C :   -0.045669    0.001690
  21 H :    0.059594    0.008432
  22 H :    0.059580    0.008368
  23 C :   -0.080719    0.000188
  24 H :    0.043917    0.000019
  25 H :    0.043875    0.000020
  26 C :   -0.090031   -0.000014
  27 H :    0.041059    0.000056
  28 H :    0.041053    0.000057
  29 C :   -0.079217   -0.000036
  30 H :    0.033767    0.000015
  31 H :    0.033775    0.000015
  32 C :   -0.065542   -0.036241
  33 H :    0.044680   -0.000215
  34 H :    0.032004   -0.000086
  35 H :    0.031489   -0.000006
  36 H :    0.050416    0.000548

  Mayer bond orders larger than 0.100000
B(  0-C ,  4-C ) :   0.9060 B(  0-C , 32-C ) :   2.7079 B(  1-C ,  2-C ) :   1.2474
B(  1-C ,  5-C ) :   0.1137 B(  1-C ,  6-C ) :   1.5177 B(  1-C ,  9-C ) :   0.1639
B(  1-C , 36-H ) :   0.9813 B(  2-C ,  3-C ) :   1.2587 B(  2-C ,  4-C ) :   0.1174
B(  2-C ,  6-C ) :   0.1061 B(  2-C ,  9-C ) :   1.1979 B(  3-C ,  4-C ) :   1.4528
B(  3-C ,  7-H ) :   0.9797 B(  3-C ,  9-C ) :   0.1156 B(  4-C ,  5-C ) :   1.3458
B(  5-C ,  6-C ) :   1.3916 B(  5-C , 20-C ) :   0.9528 B(  6-C ,  8-H ) :   0.9760
B(  9-C , 10-H ) :   1.0056 B(  9-C , 11-C ) :   0.9963 B( 11-C , 12-H ) :   0.9576
B( 11-C , 13-H ) :   0.9573 B( 11-C , 14-C ) :   0.9779 B( 14-C , 15-H ) :   0.9733
B( 14-C , 16-H ) :   0.9732 B( 14-C , 17-C ) :   0.9628 B( 17-C , 18-H ) :   0.9720
B( 17-C , 19-H ) :   0.9721 B( 17-C , 34-H ) :   0.9679 B( 20-C , 21-H ) :   0.9563
B( 20-C , 22-H ) :   0.9562 B( 20-C , 23-C ) :   1.0108 B( 23-C , 24-H ) :   0.9626
B( 23-C , 25-H ) :   0.9624 B( 23-C , 26-C ) :   0.9888 B( 26-C , 27-H ) :   0.9720
B( 26-C , 28-H ) :   0.9720 B( 26-C , 29-C ) :   0.9542 B( 29-C , 30-H ) :   0.9730
B( 29-C , 31-H ) :   0.9729 B( 29-C , 35-H ) :   0.9681 B( 32-C , 33-H ) :   0.9833

FINAL SINGLE POINT ENERGY      -621.922680649113

DIPOLE MOMENT
-------------
                                X             Y             Z
Electronic contribution:     -4.84989       2.15305      -0.10865
Nuclear contribution   :      5.05010      -2.15492       0.11163
                        -----------------------------------------
Total Dipole Moment    :      0.20021      -0.00187       0.00299
                        -----------------------------------------
Magnitude (a.u.)       :      0.20025
Magnitude (Debye)      :      0.50898

Rotational constants in cm-1:     0.039366     0.005972     0.005220
Rotational constants in MHz :  1180.173357   179.023977   156.494684

                             ****ORCA TERMINATED NORMALLY****
TOTAL RUN TIME: 0 days 0 hours 7 minutes 39 seconds 166 msec
