                         Program Version 5.0.4 -  RELEASE  -
|  1> ! B3LYP cc-pVDZ OPT
|  2> %pal nprocs 16 end
|  3> *XYZFile 0 2 model.xyz
|  4>
|  5>                          ****END OF INPUT****
 Total Charge           Charge          ....    0
 Multiplicity           Mult            ....    2
 Number of Electrons    NEL             ....  117
FINAL SINGLE POINT ENERGY      -621.860275722301
                    ***********************HURRAY********************

CARTESIAN COORDINATES (ANGSTROEM)
---------------------------------
  C     -2.933965   -0.019156   -0.033968
  C      1.296444    0.061824    0.040566
  C      0.590322    1.299161    0.022548
  C     -0.830039    1.218699   -0.002568
  C     -1.498847   -0.010865   -0.008782
  C     -0.774122   -1.238368    0.009788
  C      0.629525   -1.156383    0.034189
  H     -1.427048    2.131305   -0.017267
  H      1.218575   -2.074536    0.048583
  C      1.286379    2.535197    0.030201
  H      2.380650    2.491770    0.051082
  C      0.640532    3.887507    0.012493
  H     -0.012376    3.983662   -0.880092
  H     -0.049999    3.988622    0.875732
  C      1.643345    5.048380    0.030876
  H      2.282617    4.957558    0.928191
  H      2.320901    4.952811   -0.837413
  C      0.972750    6.423267    0.012627
  H      0.314169    6.559669    0.887828
  H      0.351814    6.554369   -0.890468
  C     -1.524725   -2.554079    0.003958
  H     -2.212077   -2.565707    0.870720
  H     -2.195078   -2.567781   -0.875816
  C     -0.682422   -3.832632    0.013830
  H     -0.007492   -3.844979   -0.861979
  H     -0.029847   -3.846602    0.906400
  C     -1.540410   -5.103659    0.002474
  H     -2.218502   -5.092318    0.875946
  H     -2.195501   -5.092127   -0.888376
  C     -0.711859   -6.390673    0.013110
  H     -0.072869   -6.448665    0.911291
  H     -0.048487   -6.447504   -0.867274
  C     -4.149537   -0.021067   -0.056637
  H     -5.221657   -0.018204   -0.079579
  H      1.717527    7.235284    0.026000
  H     -1.354931   -7.285723    0.003734
  H      2.389642    0.078813    0.059985

 Multiplicity           Mult            ....    2
 Number of Electrons    NEL             ....  117
 Basis Dimension        Dim             ....  329

ORBITAL ENERGIES
----------------
                 SPIN UP ORBITALS
  NO   OCC          E(Eh)            E(eV)
   0   1.0000     -10.207380      -277.7569
   1   1.0000     -10.199196      -277.5342
   2   1.0000     -10.192039      -277.3395
   3   1.0000     -10.191441      -277.3232
   4   1.0000     -10.190775      -277.3051
   5   1.0000     -10.189343      -277.2661
   6   1.0000     -10.188402      -277.2405
   7   1.0000     -10.187092      -277.2049
   8   1.0000     -10.184282      -277.1284
   9   1.0000     -10.184188      -277.1259
  10   1.0000     -10.183990      -277.1205
  11   1.0000     -10.182571      -277.0818
  12   1.0000     -10.180730      -277.0317
  13   1.0000     -10.180526      -277.0262
  14   1.0000     -10.176953      -276.9290
  15   1.0000     -10.175090      -276.8783
  16   1.0000      -0.865760       -23.5585
  17   1.0000      -0.814443       -22.1621
  18   1.0000      -0.794859       -21.6292
  19   1.0000      -0.780035       -21.2258
  20   1.0000      -0.763601       -20.7786
  21   1.0000      -0.730556       -19.8794
  22   1.0000      -0.723534       -19.6884
  23   1.0000      -0.696230       -18.9454
  24   1.0000      -0.653555       -17.7841
  25   1.0000      -0.622606       -16.9420
  26   1.0000      -0.612891       -16.6776
  27   1.0000      -0.588279       -16.0079
  28   1.0000      -0.578688       -15.7469
  29   1.0000      -0.559129       -15.2147
  30   1.0000      -0.525797       -14.3077
  31   1.0000      -0.494631       -13.4596
  32   1.0000      -0.472578       -12.8595
  33   1.0000      -0.469141       -12.7660
  34   1.0000      -0.462229       -12.5779
  35   1.0000      -0.461712       -12.5638
  36   1.0000      -0.428524       -11.6607
  37   1.0000      -0.426126       -11.5955
  38   1.0000      -0.422476       -11.4961
  39   1.0000      -0.419440       -11.4136
  40   1.0000      -0.410226       -11.1628
  41   1.0000      -0.395359       -10.7583
  42   1.0000      -0.387694       -10.5497
  43   1.0000      -0.375284       -10.2120
  44   1.0000      -0.374368       -10.1871
  45   1.0000      -0.362846        -9.8735
  46   1.0000      -0.348039        -9.4706
  47   1.0000      -0.347624        -9.4593
  48   1.0000      -0.338188        -9.2026
  49   1.0000      -0.331281        -9.0146
  50   1.0000      -0.330514        -8.9938
  51   1.0000      -0.324924        -8.8416
  52   1.0000      -0.322461        -8.7746
  53   1.0000      -0.321195        -8.7402
  54   1.0000      -0.307973        -8.3804
  55   1.0000      -0.271984        -7.4011
  56   1.0000      -0.267910        -7.2902
  57   1.0000      -0.236264        -6.4291
  58   1.0000      -0.171297        -4.6612
  59   0.0000      -0.031435        -0.8554
  60   0.0000       0.015226         0.4143
  61   0.0000       0.048159         1.3105
  62   0.0000       0.063166         1.7188
  63   0.0000       0.063804         1.7362

                 SPIN DOWN ORBITALS
  NO   OCC          E(Eh)            E(eV)
   0   1.0000     -10.208906      -277.7985
   1   1.0000     -10.195661      -277.4380
   2   1.0000     -10.194354      -277.4025
   3   1.0000     -10.188028      -277.2303
   4   1.0000     -10.187812      -277.2245
   5   1.0000     -10.187644      -277.2199
   6   1.0000     -10.186268      -277.1825
   7   1.0000     -10.185697      -277.1669
   8   1.0000     -10.184399      -277.1316
   9   1.0000     -10.183947      -277.1193
  10   1.0000     -10.183152      -277.0977
  11   1.0000     -10.181006      -277.0393
  12   1.0000     -10.180730      -277.0317
  13   1.0000     -10.180523      -277.0261
  14   1.0000     -10.176961      -276.9292
  15   1.0000     -10.175092      -276.8783
  16   1.0000      -0.862261       -23.4633
  17   1.0000      -0.808570       -22.0023
  18   1.0000      -0.793260       -21.5857
  19   1.0000      -0.779328       -21.2066
  20   1.0000      -0.761420       -20.7193
  21   1.0000      -0.726436       -19.7673
  22   1.0000      -0.721469       -19.6322
  23   1.0000      -0.693926       -18.8827
  24   1.0000      -0.650403       -17.6984
  25   1.0000      -0.619931       -16.8692
  26   1.0000      -0.607264       -16.5245
  27   1.0000      -0.587175       -15.9778
  28   1.0000      -0.576494       -15.6872
  29   1.0000      -0.556470       -15.1423
  30   1.0000      -0.524102       -14.2615
  31   1.0000      -0.492227       -13.3942
  32   1.0000      -0.470462       -12.8019
  33   1.0000      -0.468320       -12.7436
  34   1.0000      -0.460392       -12.5279
  35   1.0000      -0.458223       -12.4689
  36   1.0000      -0.426226       -11.5982
  37   1.0000      -0.424975       -11.5642
  38   1.0000      -0.421506       -11.4698
  39   1.0000      -0.416941       -11.3455
  40   1.0000      -0.409727       -11.1492
  41   1.0000      -0.387513       -10.5448
  42   1.0000      -0.386434       -10.5154
  43   1.0000      -0.372205       -10.1282
  44   1.0000      -0.370768       -10.0891
  45   1.0000      -0.361828        -9.8459
  46   1.0000      -0.346592        -9.4312
  47   1.0000      -0.344988        -9.3876
  48   1.0000      -0.336101        -9.1458
  49   1.0000      -0.330633        -8.9970
  50   1.0000      -0.328525        -8.9396
  51   1.0000      -0.324419        -8.8279
  52   1.0000      -0.321881        -8.7588
  53   1.0000      -0.320282        -8.7153
  54   1.0000      -0.305570        -8.3150
  55   1.0000      -0.271901        -7.3988
  56   1.0000      -0.252773        -6.8783
  57   1.0000      -0.228045        -6.2054
  58   0.0000      -0.074578        -2.0294
  59   0.0000      -0.022342        -0.6080
  60   0.0000       0.033046         0.8992
  61   0.0000       0.048583         1.3220
  62   0.0000       0.063768         1.7352

MULLIKEN ATOMIC CHARGES AND SPIN POPULATIONS
--------------------------------------------
   0 C :    0.620641    0.027445
   1 C :    0.028170    0.218315
   2 C :    0.084034   -0.160685
   3 C :   -0.002842    0.223063
   4 C :   -0.043404   -0.104410
   5 C :   -0.085380    0.241392
   6 C :    0.027333   -0.113644
   7 H :   -0.053275   -0.009497
   8 H :   -0.043764    0.004251
   9 C :   -0.072730    0.737199
  10 H :   -0.038418   -0.032286
  11 C :    0.029555   -0.050473
  12 H :    0.027769    0.033402
  13 H :    0.027838    0.033240
  14 C :   -0.040016    0.002296
  15 H :    0.011369    0.000549
  16 H :    0.011364    0.000531
  17 C :    0.004115   -0.000200
  18 H :    0.017632    0.000164
  19 H :    0.017658    0.000164
  20 C :    0.043262   -0.019305
  21 H :    0.030834    0.010467
  22 H :    0.030714    0.010250
  23 C :   -0.034689    0.000880
  24 H :    0.014039    0.000170
  25 H :    0.014207    0.000151
  26 C :   -0.024888    0.000018
  27 H :    0.005805    0.000054
  28 H :    0.005815    0.000055
  29 C :    0.003778   -0.000083
  30 H :    0.016237    0.000024
  31 H :    0.016253    0.000023
  32 C :   -0.593803   -0.045579
  33 H :   -0.031190    0.001818
  34 H :    0.012945   -0.000212
  35 H :    0.012414   -0.000006
  36 H :   -0.049383   -0.009543
Sum of atomic charges         :    0.0000000

LOEWDIN ATOMIC CHARGES AND SPIN POPULATIONS
-------------------------------------------
   0 C :   -0.000145    0.012997
   1 C :   -0.005396    0.167861
   2 C :   -0.054976   -0.067731
   3 C :    0.006938    0.170527
   4 C :   -0.057469   -0.054816
   5 C :   -0.003343    0.180379
   6 C :   -0.033480   -0.062748
   7 H :    0.027024    0.000859
   8 H :    0.026627   -0.000449
   9 C :    0.002849    0.606792
  10 H :    0.016410    0.002965
  11 C :   -0.055670    0.005894
  12 H :    0.034015    0.026106
  13 H :    0.033989    0.025966
  14 C :   -0.046214    0.001291
  15 H :    0.025004    0.000347
  16 H :    0.024990    0.000336
  17 C :   -0.067522   -0.000034
  18 H :    0.025651    0.000266
  19 H :    0.025653    0.000266
  20 C :   -0.036288    0.002266
  21 H :    0.039245    0.008245
  22 H :    0.039169    0.008076
  23 C :   -0.043723    0.000151
  24 H :    0.023507    0.000056
  25 H :    0.023471    0.000050
  26 C :   -0.047037    0.000012
  27 H :    0.024133    0.000092
  28 H :    0.024134    0.000091
  29 C :   -0.067762   -0.000040
  30 H :    0.024839    0.000016
  31 H :    0.024852    0.000016
  32 C :   -0.055281   -0.035965
  33 H :    0.021737   -0.000062
  34 H :    0.028050   -0.000115
  35 H :    0.027356   -0.000007
  36 H :    0.024662    0.000044

  Mayer bond orders larger than 0.100000
B(  0-C ,  4-C ) :   0.9023 B(  0-C , 32-C ) :   2.1424 B(  1-C ,  2-C ) :   1.2935
B(  1-C ,  6-C ) :   1.4705 B(  1-C , 36-H ) :   0.9317 B(  2-C ,  3-C ) :   1.3031
B(  2-C ,  9-C ) :   1.3060 B(  3-C ,  4-C ) :   1.4467 B(  3-C ,  7-H ) :   0.9260
B(  4-C ,  5-C ) :   1.3645 B(  5-C ,  6-C ) :   1.4097 B(  5-C , 20-C ) :   1.0923
B(  6-C ,  8-H ) :   0.9185 B(  9-C , 10-H ) :   0.9300 B(  9-C , 11-C ) :   1.0817
B( 11-C , 12-H ) :   0.9135 B( 11-C , 13-H ) :   0.9134 B( 11-C , 14-C ) :   1.0709
B( 14-C , 15-H ) :   0.9442 B( 14-C , 16-H ) :   0.9442 B( 14-C , 17-C ) :   1.1064
B( 17-C , 18-H ) :   0.9657 B( 17-C , 19-H ) :   0.9657 B( 17-C , 34-H ) :   0.9613
B( 20-C , 21-H ) :   0.8982 B( 20-C , 22-H ) :   0.8982 B( 20-C , 23-C ) :   1.1004
B( 23-C , 24-H ) :   0.9301 B( 23-C , 25-H ) :   0.9297 B( 23-C , 26-C ) :   1.0761
B( 26-C , 27-H ) :   0.9412 B( 26-C , 28-H ) :   0.9412 B( 26-C , 29-C ) :   1.1059
B( 29-C , 30-H ) :   0.9662 B( 29-C , 31-H ) :   0.9662 B( 29-C , 35-H ) :   0.9618
B( 32-C , 33-H ) :   1.1169

FINAL SINGLE POINT ENERGY      -621.860276082386

DIPOLE MOMENT
-------------
                                X             Y             Z
Electronic contribution:     -4.82911       2.15000      -0.06851
Nuclear contribution   :      4.97546      -2.14942       0.07061
                        -----------------------------------------
Total Dipole Moment    :      0.14635       0.00058       0.00210
                        -----------------------------------------
Magnitude (a.u.)       :      0.14637
Magnitude (Debye)      :      0.37203

Rotational constants in cm-1:     0.039578     0.005999     0.005245
Rotational constants in MHz :  1186.530519   179.842538   157.240716

                             ****ORCA TERMINATED NORMALLY****
TOTAL RUN TIME: 0 days 0 hours 2 minutes 12 seconds 901 msec
