                         Program Version 5.0.4 -  RELEASE  -
|  1> ! B3LYP cc-pVDZ OPT
|  2> %pal nprocs 16 end
|  3> *XYZFile 0 2 model.xyz
|  4>
|  5>                          ****END OF INPUT****
 Total Charge           Charge          ....    0
 Multiplicity           Mult            ....    2
 Number of Electrons    NEL             ....  117
FINAL SINGLE POINT ENERGY      -621.860273357152
                    ***********************HURRAY********************

CARTESIAN COORDINATES (ANGSTROEM)
---------------------------------
  C     -2.934073   -0.018766   -0.033821
  C      1.296326    0.061617    0.042355
  C      0.590316    1.299012    0.023646
  C     -0.830012    1.218758   -0.002083
  C     -1.498941   -0.010710   -0.008376
  C     -0.774370   -1.238300    0.010896
  C      0.629305   -1.156514    0.035978
  H     -1.426643    2.131592   -0.017243
  H      1.218068   -2.074806    0.050925
  C      1.286599    2.534948    0.031266
  H      2.380846    2.491530    0.052874
  C      0.640774    3.887237    0.012787
  H     -0.012358    3.982869   -0.879700
  H     -0.049610    3.989014    0.876092
  C      1.643397    5.048244    0.030137
  H      2.282865    4.958144    0.927400
  H      2.320748    4.952086   -0.838264
  C      0.972655    6.422996    0.011073
  H      0.314265    6.559972    0.886339
  H      0.351320    6.553366   -0.891860
  C     -1.525236   -2.553953    0.005144
  H     -2.211934   -2.565966    0.872443
  H     -2.196235   -2.567265   -0.874138
  C     -0.682959   -3.832515    0.013733
  H     -0.008492   -3.844031   -0.862466
  H     -0.029866   -3.846912    0.905937
  C     -1.540346   -5.103812    0.002012
  H     -2.217942   -5.093520    0.875899
  H     -2.195918   -5.092106   -0.888500
  C     -0.711165   -6.390340    0.011269
  H     -0.071581   -6.448752    0.909014
  H     -0.048195   -6.446330   -0.869486
  C     -4.149637   -0.020449   -0.056778
  H     -5.221734   -0.017269   -0.080213
  H      1.717399    7.235047    0.023638
  H     -1.353742   -7.285750    0.001613
  H      2.389514    0.078501    0.062394

 Multiplicity           Mult            ....    2
 Number of Electrons    NEL             ....  117
 Basis Dimension        Dim             ....  329

ORBITAL ENERGIES
----------------
                 SPIN UP ORBITALS
  NO   OCC          E(Eh)            E(eV)
   0   1.0000     -10.207385      -277.7571
   1   1.0000     -10.199205      -277.5345
   2   1.0000     -10.192038      -277.3395
   3   1.0000     -10.191445      -277.3233
   4   1.0000     -10.190771      -277.3050
   5   1.0000     -10.189345      -277.2662
   6   1.0000     -10.188401      -277.2405
   7   1.0000     -10.187086      -277.2047
   8   1.0000     -10.184284      -277.1284
   9   1.0000     -10.184195      -277.1260
  10   1.0000     -10.183986      -277.1204
  11   1.0000     -10.182568      -277.0818
  12   1.0000     -10.180729      -277.0317
  13   1.0000     -10.180520      -277.0260
  14   1.0000     -10.176953      -276.9290
  15   1.0000     -10.175087      -276.8782
  16   1.0000      -0.865762       -23.5586
  17   1.0000      -0.814445       -22.1622
  18   1.0000      -0.794870       -21.6295
  19   1.0000      -0.780039       -21.2259
  20   1.0000      -0.763610       -20.7789
  21   1.0000      -0.730564       -19.8796
  22   1.0000      -0.723538       -19.6885
  23   1.0000      -0.696232       -18.9454
  24   1.0000      -0.653551       -17.7840
  25   1.0000      -0.622612       -16.9421
  26   1.0000      -0.612896       -16.6777
  27   1.0000      -0.588280       -16.0079
  28   1.0000      -0.578679       -15.7467
  29   1.0000      -0.559122       -15.2145
  30   1.0000      -0.525802       -14.3078
  31   1.0000      -0.494639       -13.4598
  32   1.0000      -0.472574       -12.8594
  33   1.0000      -0.469146       -12.7661
  34   1.0000      -0.462237       -12.5781
  35   1.0000      -0.461714       -12.5639
  36   1.0000      -0.428523       -11.6607
  37   1.0000      -0.426135       -11.5957
  38   1.0000      -0.422488       -11.4965
  39   1.0000      -0.419441       -11.4136
  40   1.0000      -0.410236       -11.1631
  41   1.0000      -0.395349       -10.7580
  42   1.0000      -0.387697       -10.5498
  43   1.0000      -0.375302       -10.2125
  44   1.0000      -0.374360       -10.1868
  45   1.0000      -0.362855        -9.8738
  46   1.0000      -0.348036        -9.4705
  47   1.0000      -0.347631        -9.4595
  48   1.0000      -0.338189        -9.2026
  49   1.0000      -0.331277        -9.0145
  50   1.0000      -0.330507        -8.9936
  51   1.0000      -0.324926        -8.8417
  52   1.0000      -0.322448        -8.7743
  53   1.0000      -0.321197        -8.7402
  54   1.0000      -0.307970        -8.3803
  55   1.0000      -0.271984        -7.4011
  56   1.0000      -0.267912        -7.2902
  57   1.0000      -0.236268        -6.4292
  58   1.0000      -0.171301        -4.6614
  59   0.0000      -0.031434        -0.8554
  60   0.0000       0.015219         0.4141
  61   0.0000       0.048163         1.3106
  62   0.0000       0.063163         1.7187
  63   0.0000       0.063807         1.7363

                 SPIN DOWN ORBITALS
  NO   OCC          E(Eh)            E(eV)
   0   1.0000     -10.208911      -277.7986
   1   1.0000     -10.195670      -277.4383
   2   1.0000     -10.194353      -277.4025
   3   1.0000     -10.188027      -277.2303
   4   1.0000     -10.187807      -277.2243
   5   1.0000     -10.187640      -277.2198
   6   1.0000     -10.186270      -277.1825
   7   1.0000     -10.185699      -277.1670
   8   1.0000     -10.184406      -277.1318
   9   1.0000     -10.183944      -277.1192
  10   1.0000     -10.183148      -277.0976
  11   1.0000     -10.181011      -277.0394
  12   1.0000     -10.180729      -277.0317
  13   1.0000     -10.180518      -277.0260
  14   1.0000     -10.176961      -276.9292
  15   1.0000     -10.175089      -276.8783
  16   1.0000      -0.862263       -23.4634
  17   1.0000      -0.808573       -22.0024
  18   1.0000      -0.793271       -21.5860
  19   1.0000      -0.779331       -21.2067
  20   1.0000      -0.761429       -20.7195
  21   1.0000      -0.726444       -19.7675
  22   1.0000      -0.721472       -19.6323
  23   1.0000      -0.693926       -18.8827
  24   1.0000      -0.650398       -17.6982
  25   1.0000      -0.619936       -16.8693
  26   1.0000      -0.607270       -16.5246
  27   1.0000      -0.587176       -15.9779
  28   1.0000      -0.576484       -15.6869
  29   1.0000      -0.556465       -15.1422
  30   1.0000      -0.524106       -14.2616
  31   1.0000      -0.492237       -13.3944
  32   1.0000      -0.470459       -12.8018
  33   1.0000      -0.468325       -12.7438
  34   1.0000      -0.460401       -12.5281
  35   1.0000      -0.458225       -12.4689
  36   1.0000      -0.426228       -11.5983
  37   1.0000      -0.424982       -11.5644
  38   1.0000      -0.421517       -11.4701
  39   1.0000      -0.416942       -11.3456
  40   1.0000      -0.409737       -11.1495
  41   1.0000      -0.387501       -10.5445
  42   1.0000      -0.386437       -10.5155
  43   1.0000      -0.372223       -10.1287
  44   1.0000      -0.370760       -10.0889
  45   1.0000      -0.361838        -9.8461
  46   1.0000      -0.346599        -9.4315
  47   1.0000      -0.344986        -9.3876
  48   1.0000      -0.336101        -9.1458
  49   1.0000      -0.330629        -8.9969
  50   1.0000      -0.328516        -8.9394
  51   1.0000      -0.324421        -8.8279
  52   1.0000      -0.321868        -8.7585
  53   1.0000      -0.320285        -8.7154
  54   1.0000      -0.305568        -8.3149
  55   1.0000      -0.271900        -7.3988
  56   1.0000      -0.252776        -6.8784
  57   1.0000      -0.228049        -6.2055
  58   0.0000      -0.074581        -2.0294
  59   0.0000      -0.022342        -0.6080
  60   0.0000       0.033039         0.8990
  61   0.0000       0.048587         1.3221
  62   0.0000       0.063768         1.7352

MULLIKEN ATOMIC CHARGES AND SPIN POPULATIONS
--------------------------------------------
   0 C :    0.620654    0.027440
   1 C :    0.028184    0.218282
   2 C :    0.083986   -0.160677
   3 C :   -0.002789    0.223035
   4 C :   -0.043353   -0.104400
   5 C :   -0.085474    0.241391
   6 C :    0.027382   -0.113633
   7 H :   -0.053274   -0.009495
   8 H :   -0.043776    0.004250
   9 C :   -0.072721    0.737220
  10 H :   -0.038414   -0.032286
  11 C :    0.029478   -0.050480
  12 H :    0.027769    0.033382
  13 H :    0.027833    0.033279
  14 C :   -0.039982    0.002296
  15 H :    0.011366    0.000546
  16 H :    0.011359    0.000534
  17 C :    0.004117   -0.000200
  18 H :    0.017626    0.000164
  19 H :    0.017651    0.000164
  20 C :    0.043332   -0.019304
  21 H :    0.030838    0.010482
  22 H :    0.030704    0.010230
  23 C :   -0.034786    0.000880
  24 H :    0.014017    0.000171
  25 H :    0.014230    0.000150
  26 C :   -0.024783    0.000017
  27 H :    0.005805    0.000054
  28 H :    0.005817    0.000055
  29 C :    0.003736   -0.000083
  30 H :    0.016223    0.000024
  31 H :    0.016246    0.000023
  32 C :   -0.593780   -0.045571
  33 H :   -0.031197    0.001818
  34 H :    0.012951   -0.000212
  35 H :    0.012401   -0.000006
  36 H :   -0.049377   -0.009541
Sum of atomic charges         :   -0.0000000

LOEWDIN ATOMIC CHARGES AND SPIN POPULATIONS
-------------------------------------------
   0 C :   -0.000140    0.012996
   1 C :   -0.005397    0.167836
   2 C :   -0.054962   -0.067730
   3 C :    0.006934    0.170503
   4 C :   -0.057465   -0.054810
   5 C :   -0.003324    0.180384
   6 C :   -0.033475   -0.062742
   7 H :    0.027026    0.000859
   8 H :    0.026621   -0.000449
   9 C :    0.002854    0.606813
  10 H :    0.016411    0.002966
  11 C :   -0.055690    0.005896
  12 H :    0.034011    0.026088
  13 H :    0.033993    0.025997
  14 C :   -0.046223    0.001290
  15 H :    0.025005    0.000345
  16 H :    0.024991    0.000338
  17 C :   -0.067520   -0.000033
  18 H :    0.025653    0.000266
  19 H :    0.025653    0.000266
  20 C :   -0.036280    0.002263
  21 H :    0.039241    0.008256
  22 H :    0.039159    0.008060
  23 C :   -0.043753    0.000151
  24 H :    0.023520    0.000056
  25 H :    0.023472    0.000049
  26 C :   -0.047050    0.000011
  27 H :    0.024140    0.000091
  28 H :    0.024142    0.000091
  29 C :   -0.067764   -0.000040
  30 H :    0.024837    0.000016
  31 H :    0.024854    0.000016
  32 C :   -0.055279   -0.035959
  33 H :    0.021732   -0.000062
  34 H :    0.028053   -0.000115
  35 H :    0.027357   -0.000007
  36 H :    0.024663    0.000043

  Mayer bond orders larger than 0.100000
B(  0-C ,  4-C ) :   0.9023 B(  0-C , 32-C ) :   2.1424 B(  1-C ,  2-C ) :   1.2935
B(  1-C ,  6-C ) :   1.4705 B(  1-C , 36-H ) :   0.9317 B(  2-C ,  3-C ) :   1.3033
B(  2-C ,  9-C ) :   1.3059 B(  3-C ,  4-C ) :   1.4466 B(  3-C ,  7-H ) :   0.9260
B(  4-C ,  5-C ) :   1.3645 B(  5-C ,  6-C ) :   1.4097 B(  5-C , 20-C ) :   1.0923
B(  6-C ,  8-H ) :   0.9185 B(  9-C , 10-H ) :   0.9301 B(  9-C , 11-C ) :   1.0817
B( 11-C , 12-H ) :   0.9135 B( 11-C , 13-H ) :   0.9134 B( 11-C , 14-C ) :   1.0709
B( 14-C , 15-H ) :   0.9442 B( 14-C , 16-H ) :   0.9442 B( 14-C , 17-C ) :   1.1064
B( 17-C , 18-H ) :   0.9657 B( 17-C , 19-H ) :   0.9657 B( 17-C , 34-H ) :   0.9613
B( 20-C , 21-H ) :   0.8982 B( 20-C , 22-H ) :   0.8982 B( 20-C , 23-C ) :   1.1004
B( 23-C , 24-H ) :   0.9301 B( 23-C , 25-H ) :   0.9297 B( 23-C , 26-C ) :   1.0762
B( 26-C , 27-H ) :   0.9412 B( 26-C , 28-H ) :   0.9412 B( 26-C , 29-C ) :   1.1059
B( 29-C , 30-H ) :   0.9662 B( 29-C , 31-H ) :   0.9662 B( 29-C , 35-H ) :   0.9618
B( 32-C , 33-H ) :   1.1169

FINAL SINGLE POINT ENERGY      -621.860275734810

DIPOLE MOMENT
-------------
                                X             Y             Z
Electronic contribution:     -4.83051       2.15061      -0.05958
Nuclear contribution   :      4.97690      -2.15001       0.06175
                        -----------------------------------------
Total Dipole Moment    :      0.14639       0.00061       0.00217
                        -----------------------------------------
Magnitude (a.u.)       :      0.14641
Magnitude (Debye)      :      0.37214

Rotational constants in cm-1:     0.039573     0.005999     0.005245
Rotational constants in MHz :  1186.357256   179.855377   157.247625

                             ****ORCA TERMINATED NORMALLY****
TOTAL RUN TIME: 0 days 0 hours 2 minutes 13 seconds 259 msec
