                         Program Version 4.2.1 -  RELEASE  -
|  1> ! B3LYP cc-pVDZ AUTOAUX
|  2> %pal nprocs 16 end
|  3> *XYZFile 0 2 opt.xyz
|  4> %EPRNMR
|  5>         GTENSOR   TRUE
|  6>         NUCLEI    = ALL H {AISO, ADIP, AORB}
|  7> END
|  8>
|  9>                          ****END OF INPUT****

CARTESIAN COORDINATES (ANGSTROEM)
---------------------------------
  C     -4.052050    0.116927   -0.001125
  C     -2.836378    0.052264   -0.003127
  C      2.843071   -0.006518   -0.002320
  C     -1.409806    0.001811   -0.003079
  C     -0.708557   -1.259257   -0.002689
  C      0.712795   -1.194669   -0.002375
  C      1.414315    0.014456   -0.002569
  C      0.706927    1.258607   -0.003039
  C     -0.688672    1.208330   -0.003353
  H      1.286848   -2.121389   -0.002022
  H     -1.261464    2.135496   -0.003754
  C     -1.398412   -2.492570   -0.002619
  H     -2.491323   -2.454264   -0.003073
  C     -0.743848   -3.841327   -0.002185
  H     -0.072555   -3.937857   -0.880844
  H     -0.071512   -3.936811    0.875776
  C     -1.742531   -5.005541   -0.000908
  H     -2.400810   -4.913594    0.882641
  H     -2.401935   -4.914599   -0.883727
  C     -1.066225   -6.377387   -0.000559
  H     -0.425031   -6.508405    0.888511
  H     -0.426089   -6.509376   -0.890245
  C      1.481771    2.560040   -0.003221
  H      2.159651    2.558698    0.871462
  H      2.160200    2.558136   -0.877478
  C      0.663517    3.853786   -0.003865
  H      0.000268    3.878256   -0.888605
  H     -0.000091    3.878895    0.880590
  C      1.543910    5.108858   -0.004150
  H      2.210188    5.086501    0.878769
  H      2.210174    5.086092   -0.887068
  C      0.737630    6.409502   -0.004451
  H      0.087385    6.478415    0.885008
  H      0.087250    6.477923   -0.893850
  C      4.064880   -0.030315   -0.003350
  H     -5.122667    0.179487    0.003014
  H     -1.808152   -7.191937    0.000335
  H      1.396204    7.293024   -0.004749
  C      5.492863   -0.057907   -0.002944
  C      6.188621   -1.286555   -0.002980
  C      7.583011   -1.307878   -0.002498
  C      8.308696   -0.111219   -0.002036
  C      7.628959    1.112211   -0.002076
  C      6.234984    1.143496   -0.002546
  H      9.401235   -0.132014   -0.001654
  H      8.189556    2.049849   -0.001725
  H      5.620265   -2.218262   -0.003355
  H      5.702728    2.096660   -0.002574
  H      8.108553   -2.265886   -0.002490

 Total Charge           Charge          ....    0
 Multiplicity           Mult            ....    2
 Number of Electrons    NEL             ....  169
 Basis Dimension        Dim             ....  461

ORBITAL ENERGIES
----------------
                 SPIN UP ORBITALS
  NO   OCC          E(Eh)            E(eV)
   0   1.0000     -10.216521      -278.0057
   1   1.0000     -10.213217      -277.9158
   2   1.0000     -10.211868      -277.8791
   3   1.0000     -10.202151      -277.6146
   4   1.0000     -10.198244      -277.5083
   5   1.0000     -10.197291      -277.4824
   6   1.0000     -10.197120      -277.4777
   7   1.0000     -10.196253      -277.4542
   8   1.0000     -10.195632      -277.4373
   9   1.0000     -10.195466      -277.4327
  10   1.0000     -10.194153      -277.3970
  11   1.0000     -10.192354      -277.3481
  12   1.0000     -10.189974      -277.2833
  13   1.0000     -10.189678      -277.2752
  14   1.0000     -10.189427      -277.2684
  15   1.0000     -10.188023      -277.2302
  16   1.0000     -10.187682      -277.2209
  17   1.0000     -10.187223      -277.2084
  18   1.0000     -10.185231      -277.1542
  19   1.0000     -10.183824      -277.1159
  20   1.0000     -10.182298      -277.0744
  21   1.0000     -10.181991      -277.0661
  22   1.0000     -10.177033      -276.9312
  23   1.0000     -10.175911      -276.9006
  24   1.0000      -0.873783       -23.7768
  25   1.0000      -0.863483       -23.4966
  26   1.0000      -0.820033       -22.3142
  27   1.0000      -0.797990       -21.7144
  28   1.0000      -0.796819       -21.6825
  29   1.0000      -0.778346       -21.1799
  30   1.0000      -0.767938       -20.8967
  31   1.0000      -0.751179       -20.4406
  32   1.0000      -0.744255       -20.2522
  33   1.0000      -0.730128       -19.8678
  34   1.0000      -0.713914       -19.4266
  35   1.0000      -0.697836       -18.9891
  36   1.0000      -0.656668       -17.8688
  37   1.0000      -0.643564       -17.5123
  38   1.0000      -0.620198       -16.8765
  39   1.0000      -0.611610       -16.6427
  40   1.0000      -0.609262       -16.5789
  41   1.0000      -0.592520       -16.1233
  42   1.0000      -0.580099       -15.7853
  43   1.0000      -0.561814       -15.2877
  44   1.0000      -0.541232       -14.7277
  45   1.0000      -0.529788       -14.4163
  46   1.0000      -0.507142       -13.8000
  47   1.0000      -0.489901       -13.3309
  48   1.0000      -0.480628       -13.0785
  49   1.0000      -0.476072       -12.9546
  50   1.0000      -0.471082       -12.8188
  51   1.0000      -0.462188       -12.5768
  52   1.0000      -0.457957       -12.4616
  53   1.0000      -0.437291       -11.8993
  54   1.0000      -0.431806       -11.7500
  55   1.0000      -0.429237       -11.6801
  56   1.0000      -0.426254       -11.5990
  57   1.0000      -0.424502       -11.5513
  58   1.0000      -0.422162       -11.4876
  59   1.0000      -0.411991       -11.2109
  60   1.0000      -0.398214       -10.8359
  61   1.0000      -0.397917       -10.8279
  62   1.0000      -0.383647       -10.4396
  63   1.0000      -0.378585       -10.3018
  64   1.0000      -0.377371       -10.2688
  65   1.0000      -0.365317        -9.9408
  66   1.0000      -0.361708        -9.8426
  67   1.0000      -0.356607        -9.7038
  68   1.0000      -0.354371        -9.6429
  69   1.0000      -0.350739        -9.5441
  70   1.0000      -0.340423        -9.2634
  71   1.0000      -0.332653        -9.0519
  72   1.0000      -0.332123        -9.0375
  73   1.0000      -0.330468        -8.9925
  74   1.0000      -0.328055        -8.9268
  75   1.0000      -0.324395        -8.8272
  76   1.0000      -0.322052        -8.7635
  77   1.0000      -0.297263        -8.0889
  78   1.0000      -0.275234        -7.4895
  79   1.0000      -0.273459        -7.4412
  80   1.0000      -0.268580        -7.3084
  81   1.0000      -0.258794        -7.0422
  82   1.0000      -0.255614        -6.9556
  83   1.0000      -0.214538        -5.8379
  84   1.0000      -0.173092        -4.7101
  85   0.0000      -0.060282        -1.6404
  86   0.0000      -0.010413        -0.2833
  87   0.0000      -0.009040        -0.2460
  88   0.0000       0.016486         0.4486
  89   0.0000       0.041780         1.1369

                 SPIN DOWN ORBITALS
  NO   OCC          E(Eh)            E(eV)
   0   1.0000     -10.216401      -278.0024
   1   1.0000     -10.213393      -277.9206
   2   1.0000     -10.209834      -277.8237
   3   1.0000     -10.200656      -277.5740
   4   1.0000     -10.198749      -277.5221
   5   1.0000     -10.197416      -277.4858
   6   1.0000     -10.197244      -277.4811
   7   1.0000     -10.196352      -277.4568
   8   1.0000     -10.195584      -277.4359
   9   1.0000     -10.195448      -277.4322
  10   1.0000     -10.191515      -277.3252
  11   1.0000     -10.191109      -277.3142
  12   1.0000     -10.190150      -277.2881
  13   1.0000     -10.189896      -277.2812
  14   1.0000     -10.188705      -277.2488
  15   1.0000     -10.187638      -277.2197
  16   1.0000     -10.187424      -277.2139
  17   1.0000     -10.183992      -277.1205
  18   1.0000     -10.183784      -277.1149
  19   1.0000     -10.182323      -277.0751
  20   1.0000     -10.182298      -277.0744
  21   1.0000     -10.181987      -277.0660
  22   1.0000     -10.177041      -276.9314
  23   1.0000     -10.175913      -276.9007
  24   1.0000      -0.870421       -23.6854
  25   1.0000      -0.863543       -23.4982
  26   1.0000      -0.815094       -22.1798
  27   1.0000      -0.796792       -21.6818
  28   1.0000      -0.794319       -21.6145
  29   1.0000      -0.777963       -21.1694
  30   1.0000      -0.765810       -20.8387
  31   1.0000      -0.751313       -20.4443
  32   1.0000      -0.743012       -20.2184
  33   1.0000      -0.726542       -19.7702
  34   1.0000      -0.712226       -19.3807
  35   1.0000      -0.695524       -18.9262
  36   1.0000      -0.653670       -17.7873
  37   1.0000      -0.641835       -17.4652
  38   1.0000      -0.617171       -16.7941
  39   1.0000      -0.609364       -16.5816
  40   1.0000      -0.608834       -16.5672
  41   1.0000      -0.591595       -16.0981
  42   1.0000      -0.578510       -15.7421
  43   1.0000      -0.558784       -15.2053
  44   1.0000      -0.540589       -14.7102
  45   1.0000      -0.528065       -14.3694
  46   1.0000      -0.504134       -13.7182
  47   1.0000      -0.488321       -13.2879
  48   1.0000      -0.479837       -13.0570
  49   1.0000      -0.475181       -12.9303
  50   1.0000      -0.470241       -12.7959
  51   1.0000      -0.458704       -12.4820
  52   1.0000      -0.458011       -12.4631
  53   1.0000      -0.436862       -11.8876
  54   1.0000      -0.429974       -11.7002
  55   1.0000      -0.428005       -11.6466
  56   1.0000      -0.425119       -11.5681
  57   1.0000      -0.424511       -11.5515
  58   1.0000      -0.419563       -11.4169
  59   1.0000      -0.411467       -11.1966
  60   1.0000      -0.396804       -10.7976
  61   1.0000      -0.390562       -10.6277
  62   1.0000      -0.383061       -10.4236
  63   1.0000      -0.376260       -10.2385
  64   1.0000      -0.374165       -10.1815
  65   1.0000      -0.364185        -9.9100
  66   1.0000      -0.361641        -9.8408
  67   1.0000      -0.355781        -9.6813
  68   1.0000      -0.351282        -9.5589
  69   1.0000      -0.350768        -9.5449
  70   1.0000      -0.338170        -9.2021
  71   1.0000      -0.332114        -9.0373
  72   1.0000      -0.330730        -8.9996
  73   1.0000      -0.328203        -8.9309
  74   1.0000      -0.327691        -8.9169
  75   1.0000      -0.323569        -8.8047
  76   1.0000      -0.321679        -8.7533
  77   1.0000      -0.294110        -8.0031
  78   1.0000      -0.272840        -7.4243
  79   1.0000      -0.268405        -7.3037
  80   1.0000      -0.261318        -7.1108
  81   1.0000      -0.259172        -7.0524
  82   1.0000      -0.252279        -6.8649
  83   1.0000      -0.207291        -5.6407
  84   0.0000      -0.082937        -2.2568
  85   0.0000      -0.052462        -1.4276
  86   0.0000      -0.010742        -0.2923
  87   0.0000      -0.007367        -0.2005
  88   0.0000       0.034133         0.9288

MULLIKEN ATOMIC CHARGES AND SPIN POPULATIONS
--------------------------------------------
   0 C :   -0.586721    0.099295
   1 C :    0.610031   -0.058291
   2 C :    0.262476    0.027577
   3 C :   -0.052398    0.226358
   4 C :    0.078040   -0.165613
   5 C :   -0.026610    0.218066
   6 C :   -0.143301   -0.103036
   7 C :   -0.090726    0.234076
   8 C :    0.031831   -0.115948
   9 H :   -0.051169   -0.008940
  10 H :   -0.049568    0.004111
  11 C :   -0.099889    0.708506
  12 H :   -0.018959   -0.030172
  13 C :    0.032753   -0.048486
  14 H :    0.028766    0.031823
  15 H :    0.028796    0.031755
  16 C :   -0.040431    0.002209
  17 H :    0.013049    0.000509
  18 H :    0.013078    0.000503
  19 C :    0.005170   -0.000148
  20 H :    0.017020    0.000152
  21 H :    0.017017    0.000152
  22 C :    0.037027   -0.018572
  23 H :    0.033549    0.009998
  24 H :    0.033563    0.009995
  25 C :   -0.036670    0.000853
  26 H :    0.017176    0.000178
  27 H :    0.017170    0.000178
  28 C :   -0.024206    0.000028
  29 H :    0.005406    0.000056
  30 H :    0.005409    0.000056
  31 C :    0.003422   -0.000079
  32 H :    0.017297    0.000023
  33 H :    0.017296    0.000023
  34 C :    0.137335   -0.042905
  35 H :   -0.025312   -0.003949
  36 H :    0.015168   -0.000204
  37 H :    0.012104   -0.000006
  38 C :   -0.257516    0.008715
  39 C :    0.032663   -0.009204
  40 C :    0.041744    0.004291
  41 C :    0.026022   -0.009851
  42 C :    0.043582    0.004280
  43 C :    0.027751   -0.009164
  44 H :   -0.022476    0.000406
  45 H :   -0.028086   -0.000140
  46 H :   -0.040277    0.000354
  47 H :   -0.039241    0.000320
  48 H :   -0.028157   -0.000140
Sum of atomic charges         :    0.0000000

LOEWDIN ATOMIC CHARGES AND SPIN POPULATIONS
-------------------------------------------
   0 C :   -0.052325    0.079782
   1 C :   -0.003020   -0.022616
   2 C :   -0.016254    0.014271
   3 C :   -0.041788    0.162011
   4 C :   -0.039551   -0.069876
   5 C :    0.009808    0.165296
   6 C :   -0.051964   -0.056686
   7 C :   -0.005214    0.173390
   8 C :   -0.007326   -0.063160
   9 H :    0.028393    0.000949
  10 H :    0.030944   -0.000512
  11 C :    0.012860    0.582321
  12 H :    0.023350    0.003430
  13 C :   -0.054681    0.005601
  14 H :    0.034331    0.024875
  15 H :    0.034320    0.024819
  16 C :   -0.046165    0.001171
  17 H :    0.025872    0.000317
  18 H :    0.025876    0.000314
  19 C :   -0.067837   -0.000024
  20 H :    0.025404    0.000252
  21 H :    0.025402    0.000252
  22 C :   -0.036215    0.002184
  23 H :    0.039125    0.007865
  24 H :    0.039129    0.007862
  25 C :   -0.043837    0.000160
  26 H :    0.024742    0.000058
  27 H :    0.024740    0.000058
  28 C :   -0.047281    0.000021
  29 H :    0.023721    0.000092
  30 H :    0.023723    0.000092
  31 C :   -0.067341   -0.000038
  32 H :    0.025352    0.000016
  33 H :    0.025353    0.000016
  34 C :   -0.022123   -0.031148
  35 H :    0.022074    0.000178
  36 H :    0.028750   -0.000111
  37 H :    0.027398   -0.000007
  38 C :   -0.053432    0.003838
  39 C :   -0.000946   -0.007236
  40 C :   -0.023139    0.002489
  41 C :   -0.022313   -0.007755
  42 C :   -0.023205    0.002482
  43 C :   -0.002036   -0.007219
  44 H :    0.028904   -0.000054
  45 H :    0.029219    0.000026
  46 H :    0.030011   -0.000031
  47 H :    0.029956   -0.000038
  48 H :    0.029236    0.000026

  Mayer bond orders larger than 0.100000
B(  0-C ,  1-C ) :   2.1461 B(  0-C , 35-H ) :   1.1061 B(  1-C ,  3-C ) :   0.9115
B(  2-C ,  6-C ) :   0.8821 B(  2-C , 34-C ) :   1.7683 B(  2-C , 38-C ) :  -0.1761
B(  3-C ,  4-C ) :   1.2789 B(  3-C ,  8-C ) :   1.3867 B(  4-C ,  5-C ) :   1.2928
B(  4-C , 11-C ) :   1.3664 B(  5-C ,  6-C ) :   1.4407 B(  5-C ,  9-H ) :   0.9221
B(  6-C ,  7-C ) :   1.3513 B(  7-C ,  8-C ) :   1.4188 B(  7-C , 22-C ) :   1.0968
B(  8-C , 10-H ) :   0.9216 B( 11-C , 12-H ) :   0.9027 B( 11-C , 13-C ) :   1.0827
B( 13-C , 14-H ) :   0.9123 B( 13-C , 15-H ) :   0.9123 B( 13-C , 16-C ) :   1.0717
B( 16-C , 17-H ) :   0.9441 B( 16-C , 18-H ) :   0.9441 B( 16-C , 19-C ) :   1.1059
B( 19-C , 20-H ) :   0.9654 B( 19-C , 21-H ) :   0.9654 B( 19-C , 36-H ) :   0.9612
B( 22-C , 23-H ) :   0.8964 B( 22-C , 24-H ) :   0.8964 B( 22-C , 25-C ) :   1.1023
B( 25-C , 26-H ) :   0.9296 B( 25-C , 27-H ) :   0.9296 B( 25-C , 28-C ) :   1.0740
B( 28-C , 29-H ) :   0.9415 B( 28-C , 30-H ) :   0.9415 B( 28-C , 31-C ) :   1.1042
B( 31-C , 32-H ) :   0.9665 B( 31-C , 33-H ) :   0.9665 B( 31-C , 37-H ) :   0.9625
B( 34-C , 38-C ) :   0.9347 B( 38-C , 39-C ) :   1.4404 B( 38-C , 43-C ) :   1.4377
B( 39-C , 40-C ) :   1.4723 B( 39-C , 46-H ) :   0.9403 B( 40-C , 41-C ) :   1.4451
B( 40-C , 48-H ) :   0.9378 B( 41-C , 42-C ) :   1.4432 B( 41-C , 44-H ) :   0.9443
B( 42-C , 43-C ) :   1.4730 B( 42-C , 45-H ) :   0.9377 B( 43-C , 47-H ) :   0.9407

FINAL SINGLE POINT ENERGY      -928.901020148449

DIPOLE MOMENT
-------------
                                X             Y             Z
Electronic contribution:      9.45517      -2.44408      -0.00336
Nuclear contribution   :     -9.08242       2.40652       0.00485
                        -----------------------------------------
Total Dipole Moment    :      0.37275      -0.03755       0.00149
                        -----------------------------------------
Magnitude (a.u.)       :      0.37464
Magnitude (Debye)      :      0.95226

Rotational constants in cm-1:     0.006659     0.004189     0.002580
Rotational constants in MHz :   199.620044   125.573502    77.343008

                             ****ORCA TERMINATED NORMALLY****
TOTAL RUN TIME: 0 days 0 hours 47 minutes 37 seconds 776 msec
