                         Program Version 4.2.1 -  RELEASE  -
|  1> ! B3LYP cc-pVDZ OPT
|  2> %pal nprocs 16 end
|  3> *XYZFile 0 2 Rhop.xyz
|  4>
|  5>                          ****END OF INPUT****
 Total Charge           Charge          ....    0
 Multiplicity           Mult            ....    2
 Number of Electrons    NEL             ....  169
FINAL SINGLE POINT ENERGY      -928.888570791076
FINAL SINGLE POINT ENERGY      -928.900086138946
FINAL SINGLE POINT ENERGY      -928.900856603893
FINAL SINGLE POINT ENERGY      -928.901006291323
FINAL SINGLE POINT ENERGY      -928.901017896071
FINAL SINGLE POINT ENERGY      -928.901019835013
FINAL SINGLE POINT ENERGY      -928.901020678194
                    ***********************HURRAY********************

CARTESIAN COORDINATES (ANGSTROEM)
---------------------------------
  C     -4.052050    0.116927   -0.001125
  C     -2.836378    0.052264   -0.003127
  C      2.843071   -0.006518   -0.002320
  C     -1.409806    0.001811   -0.003079
  C     -0.708557   -1.259257   -0.002689
  C      0.712795   -1.194669   -0.002375
  C      1.414315    0.014456   -0.002569
  C      0.706927    1.258607   -0.003039
  C     -0.688672    1.208330   -0.003353
  H      1.286848   -2.121389   -0.002022
  H     -1.261464    2.135496   -0.003754
  C     -1.398412   -2.492570   -0.002619
  H     -2.491323   -2.454264   -0.003073
  C     -0.743848   -3.841327   -0.002185
  H     -0.072555   -3.937857   -0.880844
  H     -0.071512   -3.936811    0.875776
  C     -1.742531   -5.005541   -0.000908
  H     -2.400810   -4.913594    0.882641
  H     -2.401935   -4.914599   -0.883727
  C     -1.066225   -6.377387   -0.000559
  H     -0.425031   -6.508405    0.888511
  H     -0.426089   -6.509376   -0.890245
  C      1.481771    2.560040   -0.003221
  H      2.159651    2.558698    0.871462
  H      2.160200    2.558136   -0.877478
  C      0.663517    3.853786   -0.003865
  H      0.000268    3.878256   -0.888605
  H     -0.000091    3.878895    0.880590
  C      1.543910    5.108858   -0.004150
  H      2.210188    5.086501    0.878769
  H      2.210174    5.086092   -0.887068
  C      0.737630    6.409502   -0.004451
  H      0.087385    6.478415    0.885008
  H      0.087250    6.477923   -0.893850
  C      4.064880   -0.030315   -0.003350
  H     -5.122667    0.179487    0.003014
  H     -1.808152   -7.191937    0.000335
  H      1.396204    7.293024   -0.004749
  C      5.492863   -0.057907   -0.002944
  C      6.188621   -1.286555   -0.002980
  C      7.583011   -1.307878   -0.002498
  C      8.308696   -0.111219   -0.002036
  C      7.628959    1.112211   -0.002076
  C      6.234984    1.143496   -0.002546
  H      9.401235   -0.132014   -0.001654
  H      8.189556    2.049849   -0.001725
  H      5.620265   -2.218262   -0.003355
  H      5.702728    2.096660   -0.002574
  H      8.108553   -2.265886   -0.002490

 Multiplicity           Mult            ....    2
 Number of Electrons    NEL             ....  169
 Basis Dimension        Dim             ....  461

ORBITAL ENERGIES
----------------
                 SPIN UP ORBITALS
  NO   OCC          E(Eh)            E(eV)
   0   1.0000     -10.216536      -278.0061
   1   1.0000     -10.213240      -277.9164
   2   1.0000     -10.211820      -277.8778
   3   1.0000     -10.202169      -277.6151
   4   1.0000     -10.198196      -277.5070
   5   1.0000     -10.197276      -277.4820
   6   1.0000     -10.197104      -277.4773
   7   1.0000     -10.196243      -277.4539
   8   1.0000     -10.195648      -277.4377
   9   1.0000     -10.195474      -277.4330
  10   1.0000     -10.194180      -277.3977
  11   1.0000     -10.192349      -277.3479
  12   1.0000     -10.189946      -277.2825
  13   1.0000     -10.189676      -277.2752
  14   1.0000     -10.189413      -277.2680
  15   1.0000     -10.188013      -277.2299
  16   1.0000     -10.187681      -277.2209
  17   1.0000     -10.187221      -277.2084
  18   1.0000     -10.185260      -277.1550
  19   1.0000     -10.183823      -277.1159
  20   1.0000     -10.182300      -277.0745
  21   1.0000     -10.181994      -277.0661
  22   1.0000     -10.177028      -276.9310
  23   1.0000     -10.175909      -276.9006
  24   1.0000      -0.873786       -23.7769
  25   1.0000      -0.863476       -23.4964
  26   1.0000      -0.820027       -22.3141
  27   1.0000      -0.797989       -21.7144
  28   1.0000      -0.796819       -21.6825
  29   1.0000      -0.778332       -21.1795
  30   1.0000      -0.767939       -20.8967
  31   1.0000      -0.751172       -20.4404
  32   1.0000      -0.744265       -20.2525
  33   1.0000      -0.730132       -19.8679
  34   1.0000      -0.713925       -19.4269
  35   1.0000      -0.697835       -18.9891
  36   1.0000      -0.656666       -17.8688
  37   1.0000      -0.643562       -17.5122
  38   1.0000      -0.620198       -16.8765
  39   1.0000      -0.611607       -16.6427
  40   1.0000      -0.609257       -16.5787
  41   1.0000      -0.592518       -16.1232
  42   1.0000      -0.580096       -15.7852
  43   1.0000      -0.561812       -15.2877
  44   1.0000      -0.541236       -14.7278
  45   1.0000      -0.529798       -14.4165
  46   1.0000      -0.507136       -13.7999
  47   1.0000      -0.489911       -13.3312
  48   1.0000      -0.480620       -13.0783
  49   1.0000      -0.476067       -12.9544
  50   1.0000      -0.471085       -12.8189
  51   1.0000      -0.462181       -12.5766
  52   1.0000      -0.457952       -12.4615
  53   1.0000      -0.437288       -11.8992
  54   1.0000      -0.431802       -11.7499
  55   1.0000      -0.429239       -11.6802
  56   1.0000      -0.426252       -11.5989
  57   1.0000      -0.424501       -11.5513
  58   1.0000      -0.422168       -11.4878
  59   1.0000      -0.411991       -11.2108
  60   1.0000      -0.398210       -10.8359
  61   1.0000      -0.397917       -10.8279
  62   1.0000      -0.383635       -10.4392
  63   1.0000      -0.378580       -10.3017
  64   1.0000      -0.377367       -10.2687
  65   1.0000      -0.365317        -9.9408
  66   1.0000      -0.361701        -9.8424
  67   1.0000      -0.356606        -9.7037
  68   1.0000      -0.354379        -9.6431
  69   1.0000      -0.350736        -9.5440
  70   1.0000      -0.340420        -9.2633
  71   1.0000      -0.332646        -9.0518
  72   1.0000      -0.332121        -9.0375
  73   1.0000      -0.330466        -8.9924
  74   1.0000      -0.328056        -8.9269
  75   1.0000      -0.324396        -8.8273
  76   1.0000      -0.322053        -8.7635
  77   1.0000      -0.297264        -8.0890
  78   1.0000      -0.275202        -7.4886
  79   1.0000      -0.273475        -7.4416
  80   1.0000      -0.268581        -7.3085
  81   1.0000      -0.258777        -7.0417
  82   1.0000      -0.255629        -6.9560
  83   1.0000      -0.214567        -5.8387
  84   1.0000      -0.173187        -4.7127
  85   0.0000      -0.060260        -1.6398
  86   0.0000      -0.010397        -0.2829
  87   0.0000      -0.009021        -0.2455
  88   0.0000       0.016524         0.4496
  89   0.0000       0.041778         1.1368

                 SPIN DOWN ORBITALS
  NO   OCC          E(Eh)            E(eV)
   0   1.0000     -10.216373      -278.0016
   1   1.0000     -10.213423      -277.9214
   2   1.0000     -10.209801      -277.8228
   3   1.0000     -10.200654      -277.5739
   4   1.0000     -10.198721      -277.5213
   5   1.0000     -10.197438      -277.4864
   6   1.0000     -10.197265      -277.4817
   7   1.0000     -10.196367      -277.4572
   8   1.0000     -10.195572      -277.4356
   9   1.0000     -10.195440      -277.4320
  10   1.0000     -10.191547      -277.3261
  11   1.0000     -10.191051      -277.3126
  12   1.0000     -10.190190      -277.2892
  13   1.0000     -10.189915      -277.2817
  14   1.0000     -10.188699      -277.2486
  15   1.0000     -10.187618      -277.2192
  16   1.0000     -10.187427      -277.2140
  17   1.0000     -10.183960      -277.1197
  18   1.0000     -10.183783      -277.1148
  19   1.0000     -10.182310      -277.0747
  20   1.0000     -10.182300      -277.0745
  21   1.0000     -10.181990      -277.0660
  22   1.0000     -10.177036      -276.9312
  23   1.0000     -10.175911      -276.9006
  24   1.0000      -0.870421       -23.6854
  25   1.0000      -0.863550       -23.4984
  26   1.0000      -0.815091       -22.1798
  27   1.0000      -0.796794       -21.6819
  28   1.0000      -0.794317       -21.6145
  29   1.0000      -0.777977       -21.1698
  30   1.0000      -0.765804       -20.8386
  31   1.0000      -0.751321       -20.4445
  32   1.0000      -0.743008       -20.2183
  33   1.0000      -0.726542       -19.7702
  34   1.0000      -0.712227       -19.3807
  35   1.0000      -0.695521       -18.9261
  36   1.0000      -0.653663       -17.7871
  37   1.0000      -0.641831       -17.4651
  38   1.0000      -0.617170       -16.7940
  39   1.0000      -0.609368       -16.5817
  40   1.0000      -0.608827       -16.5670
  41   1.0000      -0.591593       -16.0981
  42   1.0000      -0.578509       -15.7420
  43   1.0000      -0.558783       -15.2053
  44   1.0000      -0.540584       -14.7101
  45   1.0000      -0.528057       -14.3692
  46   1.0000      -0.504134       -13.7182
  47   1.0000      -0.488316       -13.2878
  48   1.0000      -0.479843       -13.0572
  49   1.0000      -0.475183       -12.9304
  50   1.0000      -0.470239       -12.7959
  51   1.0000      -0.458700       -12.4819
  52   1.0000      -0.458016       -12.4633
  53   1.0000      -0.436863       -11.8876
  54   1.0000      -0.429972       -11.7001
  55   1.0000      -0.428002       -11.6465
  56   1.0000      -0.425115       -11.5680
  57   1.0000      -0.424513       -11.5516
  58   1.0000      -0.419559       -11.4168
  59   1.0000      -0.411465       -11.1965
  60   1.0000      -0.396801       -10.7975
  61   1.0000      -0.390559       -10.6276
  62   1.0000      -0.383074       -10.4240
  63   1.0000      -0.376257       -10.2385
  64   1.0000      -0.374167       -10.1816
  65   1.0000      -0.364182        -9.9099
  66   1.0000      -0.361648        -9.8409
  67   1.0000      -0.355778        -9.6812
  68   1.0000      -0.351276        -9.5587
  69   1.0000      -0.350771        -9.5450
  70   1.0000      -0.338166        -9.2020
  71   1.0000      -0.332110        -9.0372
  72   1.0000      -0.330738        -8.9998
  73   1.0000      -0.328200        -8.9308
  74   1.0000      -0.327691        -8.9169
  75   1.0000      -0.323567        -8.8047
  76   1.0000      -0.321681        -8.7534
  77   1.0000      -0.294120        -8.0034
  78   1.0000      -0.272839        -7.4243
  79   1.0000      -0.268407        -7.3037
  80   1.0000      -0.261342        -7.1115
  81   1.0000      -0.259192        -7.0530
  82   1.0000      -0.252292        -6.8652
  83   1.0000      -0.207310        -5.6412
  84   0.0000      -0.082838        -2.2541
  85   0.0000      -0.052432        -1.4267
  86   0.0000      -0.010758        -0.2927
  87   0.0000      -0.007371        -0.2006
  88   0.0000       0.034116         0.9284

MULLIKEN ATOMIC CHARGES AND SPIN POPULATIONS
--------------------------------------------
   0 C :   -0.586682    0.102558
   1 C :    0.610001   -0.061144
   2 C :    0.262473    0.031872
   3 C :   -0.052366    0.228960
   4 C :    0.078026   -0.167599
   5 C :   -0.026566    0.221749
   6 C :   -0.143308   -0.106521
   7 C :   -0.090733    0.236389
   8 C :    0.031816   -0.118667
   9 H :   -0.051174   -0.009242
  10 H :   -0.049567    0.004327
  11 C :   -0.099884    0.708613
  12 H :   -0.018974   -0.030223
  13 C :    0.032753   -0.048581
  14 H :    0.028764    0.031820
  15 H :    0.028795    0.031752
  16 C :   -0.040438    0.002233
  17 H :    0.013048    0.000504
  18 H :    0.013076    0.000497
  19 C :    0.005174   -0.000152
  20 H :    0.017018    0.000153
  21 H :    0.017016    0.000153
  22 C :    0.037026   -0.018835
  23 H :    0.033548    0.010071
  24 H :    0.033562    0.010068
  25 C :   -0.036675    0.000876
  26 H :    0.017177    0.000176
  27 H :    0.017170    0.000175
  28 C :   -0.024208    0.000027
  29 H :    0.005407    0.000056
  30 H :    0.005410    0.000056
  31 C :    0.003428   -0.000080
  32 H :    0.017295    0.000024
  33 H :    0.017294    0.000024
  34 C :    0.137342   -0.047221
  35 H :   -0.025311   -0.004174
  36 H :    0.015166   -0.000203
  37 H :    0.012103   -0.000006
  38 C :   -0.257501    0.010780
  39 C :    0.032654   -0.011086
  40 C :    0.041742    0.005819
  41 C :    0.026019   -0.011748
  42 C :    0.043578    0.005806
  43 C :    0.027738   -0.011048
  44 H :   -0.022475    0.000538
  45 H :   -0.028085   -0.000236
  46 H :   -0.040276    0.000478
  47 H :   -0.039239    0.000445
  48 H :   -0.028156   -0.000236
Sum of atomic charges         :   -0.0000000

LOEWDIN ATOMIC CHARGES AND SPIN POPULATIONS
-------------------------------------------
   0 C :   -0.052276    0.082126
   1 C :   -0.003046   -0.024258
   2 C :   -0.016269    0.016871
   3 C :   -0.041757    0.163466
   4 C :   -0.039569   -0.070925
   5 C :    0.009839    0.167735
   6 C :   -0.051965   -0.058593
   7 C :   -0.005225    0.174731
   8 C :   -0.007343   -0.064919
   9 H :    0.028391    0.000879
  10 H :    0.030943   -0.000465
  11 C :    0.012841    0.582193
  12 H :    0.023348    0.003398
  13 C :   -0.054683    0.005545
  14 H :    0.034330    0.024866
  15 H :    0.034319    0.024810
  16 C :   -0.046171    0.001182
  17 H :    0.025872    0.000314
  18 H :    0.025875    0.000311
  19 C :   -0.067835   -0.000026
  20 H :    0.025403    0.000252
  21 H :    0.025402    0.000252
  22 C :   -0.036218    0.002144
  23 H :    0.039124    0.007916
  24 H :    0.039128    0.007913
  25 C :   -0.043840    0.000166
  26 H :    0.024742    0.000057
  27 H :    0.024740    0.000057
  28 C :   -0.047282    0.000020
  29 H :    0.023722    0.000092
  30 H :    0.023723    0.000092
  31 C :   -0.067338   -0.000038
  32 H :    0.025351    0.000016
  33 H :    0.025352    0.000016
  34 C :   -0.022100   -0.033894
  35 H :    0.022076    0.000132
  36 H :    0.028749   -0.000111
  37 H :    0.027398   -0.000007
  38 C :   -0.053419    0.004930
  39 C :   -0.000951   -0.008530
  40 C :   -0.023142    0.003454
  41 C :   -0.022316   -0.009066
  42 C :   -0.023208    0.003447
  43 C :   -0.002045   -0.008513
  44 H :    0.028905   -0.000033
  45 H :    0.029220    0.000012
  46 H :    0.030012   -0.000011
  47 H :    0.029957   -0.000018
  48 H :    0.029237    0.000011

  Mayer bond orders larger than 0.100000
B(  0-C ,  1-C ) :   2.1459 B(  0-C , 35-H ) :   1.1061 B(  1-C ,  3-C ) :   0.9116
B(  2-C ,  6-C ) :   0.8822 B(  2-C , 34-C ) :   1.7681 B(  2-C , 38-C ) :  -0.1762
B(  3-C ,  4-C ) :   1.2785 B(  3-C ,  8-C ) :   1.3867 B(  4-C ,  5-C ) :   1.2925
B(  4-C , 11-C ) :   1.3670 B(  5-C ,  6-C ) :   1.4404 B(  5-C ,  9-H ) :   0.9221
B(  6-C ,  7-C ) :   1.3512 B(  7-C ,  8-C ) :   1.4186 B(  7-C , 22-C ) :   1.0968
B(  8-C , 10-H ) :   0.9216 B( 11-C , 12-H ) :   0.9027 B( 11-C , 13-C ) :   1.0827
B( 13-C , 14-H ) :   0.9123 B( 13-C , 15-H ) :   0.9123 B( 13-C , 16-C ) :   1.0717
B( 16-C , 17-H ) :   0.9441 B( 16-C , 18-H ) :   0.9441 B( 16-C , 19-C ) :   1.1059
B( 19-C , 20-H ) :   0.9654 B( 19-C , 21-H ) :   0.9654 B( 19-C , 36-H ) :   0.9612
B( 22-C , 23-H ) :   0.8964 B( 22-C , 24-H ) :   0.8964 B( 22-C , 25-C ) :   1.1023
B( 25-C , 26-H ) :   0.9296 B( 25-C , 27-H ) :   0.9296 B( 25-C , 28-C ) :   1.0740
B( 28-C , 29-H ) :   0.9415 B( 28-C , 30-H ) :   0.9415 B( 28-C , 31-C ) :   1.1042
B( 31-C , 32-H ) :   0.9665 B( 31-C , 33-H ) :   0.9665 B( 31-C , 37-H ) :   0.9625
B( 34-C , 38-C ) :   0.9347 B( 38-C , 39-C ) :   1.4403 B( 38-C , 43-C ) :   1.4377
B( 39-C , 40-C ) :   1.4723 B( 39-C , 46-H ) :   0.9403 B( 40-C , 41-C ) :   1.4451
B( 40-C , 48-H ) :   0.9378 B( 41-C , 42-C ) :   1.4432 B( 41-C , 44-H ) :   0.9443
B( 42-C , 43-C ) :   1.4730 B( 42-C , 45-H ) :   0.9377 B( 43-C , 47-H ) :   0.9407

FINAL SINGLE POINT ENERGY      -928.901021554154

DIPOLE MOMENT
-------------
                                X             Y             Z
Electronic contribution:      9.45501      -2.44402      -0.00336
Nuclear contribution   :     -9.08242       2.40652       0.00485
                        -----------------------------------------
Total Dipole Moment    :      0.37258      -0.03749       0.00149
                        -----------------------------------------
Magnitude (a.u.)       :      0.37447
Magnitude (Debye)      :      0.95183

Rotational constants in cm-1:     0.006659     0.004189     0.002580
Rotational constants in MHz :   199.620044   125.573502    77.343008

                             ****ORCA TERMINATED NORMALLY****
TOTAL RUN TIME: 0 days 0 hours 13 minutes 0 seconds 933 msec
