 Gaussian 09, Revision D.01,
 Gaussian 09:  ES64L-G09RevD.01 24-Apr-2013

 ---------------------------------------
 #P bmk/6-31+g opt(modredun,calcfc) freq
 ---------------------------------------

 ------------------------------
 Gaussian input prepared by ASE
 ------------------------------
 Symbolic Z-matrix:
 Charge =  0 Multiplicity = 2

 SCF Done:  E(UBMK) =  -621.622305400     A.U. after   25 cycles
 SCF Done:  E(UBMK) =  -621.622793911     A.U. after   20 cycles
 SCF Done:  E(UBMK) =  -621.622795156     A.U. after   17 cycles
 SCF Done:  E(UBMK) =  -621.622795751     A.U. after   17 cycles
 Optimization completed.
    -- Stationary point found.
 Normal termination of Gaussian 09 at Fri May 10 16:10:14 2024.

 ----------------------------------------------------------------
 #P Geom=AllCheck Guess=TCheck SCRF=Check GenChk UBMK/6-31+G Freq
 ----------------------------------------------------------------

 Structure from the checkpoint file:  "g09BDE.chk"
 ------------------------------
 Gaussian input prepared by ASE
 ------------------------------
 Charge =  0 Multiplicity = 2

                         Standard orientation:
 ---------------------------------------------------------------------
 Center     Atomic      Atomic             Coordinates (Angstroms)
 Number     Number       Type             X           Y           Z
 ---------------------------------------------------------------------
      1          6           0       -0.543773    2.439374   -0.000007
      2          6           0       -0.257326    1.069931   -0.000011
      3          6           0       -1.322669    0.091011   -0.000016
      4          6           0       -0.955289   -1.262268   -0.000018
      5          6           0        0.395297   -1.652763   -0.000015
      6          6           0        1.456275   -0.708320   -0.000010
      7          6           0        1.114167    0.641800   -0.000008
      8          1           0       -1.722019   -2.032140   -0.000022
      9          1           0        1.876163    1.416569   -0.000004
     10          6           0       -2.769866    0.556650   -0.000022
     11          1           0       -2.923658    1.209408   -0.874425
     12          1           0       -2.923650    1.209448    0.874353
     13          6           0       -3.836413   -0.557460    0.000007
     14          1           0       -3.710427   -1.200339   -0.886460
     15          1           0       -3.710410   -1.200310    0.886492
     16          6           0       -5.269393    0.022406    0.000011
     17          1           0       -5.398954    0.666981    0.883524
     18          1           0       -5.398968    0.666963   -0.883514
     19          6           0       -6.348098   -1.082412    0.000031
     20          1           0       -6.250998   -1.721788    0.889372
     21          1           0       -6.251014   -1.721804   -0.889301
     22          6           0        2.897652   -1.210021   -0.000008
     23          1           0        3.042159   -1.856712    0.881589
     24          1           0        3.042167   -1.856696   -0.881614
     25          6           0        3.986577   -0.117500    0.000007
     26          1           0        3.867973    0.527120   -0.885760
     27          1           0        3.867965    0.527104    0.885785
     28          6           0        5.410773   -0.718121    0.000008
     29          1           0        5.532119   -1.363883    0.884356
     30          1           0        5.532128   -1.363864   -0.884353
     31          6           0        6.505227    0.371293    0.000025
     32          1           0        6.416400    1.012092    0.888904
     33          1           0        6.416405    1.012115   -0.888839
     34          1           0       -7.358486   -0.652348    0.000036
     35          1           0        7.509550   -0.072741    0.000022
     36          1           0        0.637953   -2.715845   -0.000017
     37          6           0       -0.811873    3.701510    0.000006
 ---------------------------------------------------------------------

 SCF Done:  E(UBMK) =  -621.622795751     A.U. after    2 cycles

 The electronic state is 2-A.
 Alpha  occ. eigenvalues --  -10.53882 -10.53319 -10.52555 -10.52017 -10.51697
 Alpha  occ. eigenvalues --  -10.51057 -10.50077 -10.49637 -10.48865 -10.48788
 Alpha  occ. eigenvalues --  -10.48375 -10.48118 -10.48069 -10.47629 -10.46780
 Alpha  occ. eigenvalues --  -10.46596  -0.97212  -0.90714  -0.88092  -0.87435
 Alpha  occ. eigenvalues --   -0.85259  -0.81508  -0.80546  -0.77979  -0.73278
 Alpha  occ. eigenvalues --   -0.70944  -0.69818  -0.66664  -0.65484  -0.64025
 Alpha  occ. eigenvalues --   -0.58490  -0.55402  -0.54213  -0.54200  -0.53788
 Alpha  occ. eigenvalues --   -0.50461  -0.49078  -0.48641  -0.48191  -0.48067
 Alpha  occ. eigenvalues --   -0.47083  -0.45010  -0.44364  -0.42758  -0.42316
 Alpha  occ. eigenvalues --   -0.41746  -0.41054  -0.40210  -0.38412  -0.38018
 Alpha  occ. eigenvalues --   -0.37968  -0.37609  -0.37493  -0.37001  -0.36620
 Alpha  occ. eigenvalues --   -0.30857  -0.30647  -0.30021  -0.27504
 Alpha virt. eigenvalues --   -0.03804  -0.00122   0.03225   0.04678   0.04888
 Alpha virt. eigenvalues --    0.05409   0.05886   0.06422   0.06525   0.06828
 Alpha virt. eigenvalues --    0.07397   0.07631   0.08133   0.08781   0.08889

  Beta  occ. eigenvalues --  -10.53971 -10.52980 -10.52192 -10.52128 -10.51447
  Beta  occ. eigenvalues --  -10.51237 -10.49626 -10.49573 -10.48890 -10.48375
  Beta  occ. eigenvalues --  -10.48214 -10.48118 -10.48069 -10.47629 -10.46780
  Beta  occ. eigenvalues --  -10.46596  -0.96909  -0.90582  -0.88018  -0.86954
  Beta  occ. eigenvalues --   -0.85176  -0.81426  -0.79103  -0.77644  -0.73212
  Beta  occ. eigenvalues --   -0.70518  -0.69723  -0.66496  -0.65471  -0.63962
  Beta  occ. eigenvalues --   -0.58312  -0.55109  -0.54188  -0.54036  -0.53692
  Beta  occ. eigenvalues --   -0.50367  -0.48840  -0.48568  -0.48055  -0.48034
  Beta  occ. eigenvalues --   -0.47062  -0.44931  -0.43651  -0.42672  -0.42299
  Beta  occ. eigenvalues --   -0.41607  -0.40947  -0.39866  -0.38402  -0.37952
  Beta  occ. eigenvalues --   -0.37939  -0.37560  -0.37479  -0.36952  -0.33602
  Beta  occ. eigenvalues --   -0.29866  -0.29616  -0.29074
  Beta virt. eigenvalues --   -0.14701  -0.01481   0.00660   0.03267   0.04680
  Beta virt. eigenvalues --    0.04900   0.05417   0.05923   0.06515   0.06674
  Beta virt. eigenvalues --    0.06869   0.07464   0.08026   0.08270   0.08948

 Mulliken charges and spin densities:
               1          2
     1  C    0.350551   0.287516
     2  C   -0.181970  -0.027344
     3  C    0.605773   0.135718
     4  C   -0.459765  -0.138114
     5  C    0.288183   0.286609
     6  C    0.810587  -0.117205
     7  C   -0.586606   0.199508
     8  H    0.197314   0.003372
     9  H    0.222829  -0.006092
    10  C   -0.697659  -0.106368
    11  H    0.231694   0.010203
    12  H    0.231695   0.010203
    13  C   -0.404218  -0.003283
    14  H    0.185791  -0.000069
    15  H    0.185793  -0.000069
    16  C   -0.148428  -0.002416
    17  H    0.189006  -0.000008
    18  H    0.189006  -0.000008
    19  C   -0.737993  -0.000178
    20  H    0.187195   0.000017
    21  H    0.187195   0.000017
    22  C   -0.952308  -0.015564
    23  H    0.211266  -0.002577
    24  H    0.211266  -0.002577
    25  C   -0.260428  -0.004062
    26  H    0.193117   0.000129
    27  H    0.193118   0.000129
    28  C   -0.141820  -0.000876
    29  H    0.183580   0.000024
    30  H    0.183580   0.000024
    31  C   -0.738039  -0.000008
    32  H    0.191113  -0.000006
    33  H    0.191113  -0.000006
    34  H    0.190162  -0.000004
    35  H    0.188560  -0.000005
    36  H    0.197561  -0.011150
    37  C   -0.887813   0.504519
 Sum of Mulliken charges =   0.00000   1.00000

 Dipole moment (field-independent basis, Debye):
    X=              1.3588    Y=             -6.8891    Z=              0.0000  Tot=              7.0219
 Quadrupole moment (field-independent basis, Debye-Ang):
   XX=            -87.4803   YY=           -124.5931   ZZ=           -101.7701
   XY=              4.2133   XZ=              0.0001   YZ=             -0.0001

  Exact polarizability: 228.377 -16.933 235.702   0.067   0.041 125.175
 Approx polarizability: 224.183 -24.918 310.823   0.000   0.001 153.314

                      1                      2                      3
                      A                      A                      A
 Frequencies --     23.7918                49.6386                62.5421
 Red. masses --      3.7740                 3.0646                 3.8359
 Frc consts  --      0.0013                 0.0044                 0.0088
 IR Inten    --      0.0971                 0.6873                 0.2447

                      4                      5                      6
                      A                      A                      A
 Frequencies --     89.9372                91.0997               102.6091
 Red. masses --      5.8770                 1.7531                 1.9598
 Frc consts  --      0.0280                 0.0086                 0.0122
 IR Inten    --      5.3870                 0.7072                 1.9562

                      7                      8                      9
                      A                      A                      A
 Frequencies --    123.8102               127.0925               136.2697
 Red. masses --      2.1268                 2.0502                 4.1300
 Frc consts  --      0.0192                 0.0195                 0.0452
 IR Inten    --      1.4064                 0.0171                 2.2576

                     10                     11                     12
                      A                      A                      A
 Frequencies --    137.4586               160.8115               234.4494
 Red. masses --      3.0345                 2.7468                 3.4269
 Frc consts  --      0.0338                 0.0419                 0.1110
 IR Inten    --      3.0220                 0.2615                 0.4235

                     13                     14                     15
                      A                      A                      A
 Frequencies --    238.7852               263.1811               267.5272
 Red. masses --      4.0885                 1.1773                 1.0978
 Frc consts  --      0.1374                 0.0480                 0.0463
 IR Inten    --      0.0273                 1.3711                 0.0119

                     16                     17                     18
                      A                      A                      A
 Frequencies --    283.0124               308.3432               331.6564
 Red. masses --      4.0642                 4.3964                 3.3798
 Frc consts  --      0.1918                 0.2463                 0.2190
 IR Inten    --     14.7008                 0.1915                 3.7738

                     19                     20                     21
                      A                      A                      A
 Frequencies --    351.6742               445.2475               459.0869
 Red. masses --      4.1874                 3.4283                 3.4794
 Frc consts  --      0.3051                 0.4004                 0.4321
 IR Inten    --      0.0262                 2.5693                 0.2000

                     22                     23                     24
                      A                      A                      A
 Frequencies --    466.7466               498.6857               559.3347
 Red. masses --      2.8807                 5.8950                 5.1760
 Frc consts  --      0.3697                 0.8637                 0.9541
 IR Inten    --     14.6599                 3.1785                 2.5315

                     25                     26                     27
                      A                      A                      A
 Frequencies --    563.6160               621.4217               722.7654
 Red. masses --      3.1864                 5.5070                 1.8804
 Frc consts  --      0.5964                 1.2530                 0.5787
 IR Inten    --      1.5984                 2.1688                 2.3942

                     28                     29                     30
                      A                      A                      A
 Frequencies --    739.9838               763.0141               774.1859
 Red. masses --      6.1103                 1.0896                 1.2373
 Frc consts  --      1.9713                 0.3738                 0.4369
 IR Inten    --      1.4718                 2.7957                 7.4563

                     31                     32                     33
                      A                      A                      A
 Frequencies --    797.6743               814.9660               828.1691
 Red. masses --      4.5046                 1.2601                 1.3125
 Frc consts  --      1.6887                 0.4931                 0.5304
 IR Inten    --      0.1606                 5.9642                 0.2926

                     34                     35                     36
                      A                      A                      A
 Frequencies --    882.6230               930.0162               934.6032
 Red. masses --      1.3083                 1.9305                 1.8020
 Frc consts  --      0.6005                 0.9838                 0.9274
 IR Inten    --     17.8975                 5.1741                 3.8753

                     37                     38                     39
                      A                      A                      A
 Frequencies --    942.4199               975.9667               976.1137
 Red. masses --      1.2979                 4.2593                 1.2688
 Frc consts  --      0.6792                 2.3903                 0.7123
 IR Inten    --      0.7001                 5.2066                 3.9725

                     40                     41                     42
                      A                      A                      A
 Frequencies --    989.2774              1029.1210              1053.8154
 Red. masses --      1.2983                 1.3794                 4.0083
 Frc consts  --      0.7486                 0.8607                 2.6226
 IR Inten    --      6.7242                 0.8571                 3.6148

                     43                     44                     45
                      A                      A                      A
 Frequencies --   1056.7189              1099.1356              1102.2884
 Red. masses --      3.8595                 2.6409                 2.6059
 Frc consts  --      2.5392                 1.8798                 1.8655
 IR Inten    --      0.4062                 0.2540                 0.9924

                     46                     47                     48
                      A                      A                      A
 Frequencies --   1134.4872              1149.5852              1159.9078
 Red. masses --      2.2430                 2.1547                 2.7357
 Frc consts  --      1.7009                 1.6777                 2.1686
 IR Inten    --      1.6491                 6.8585                18.4265

                     49                     50                     51
                      A                      A                      A
 Frequencies --   1162.2899              1169.7377              1219.0938
 Red. masses --      1.4522                 1.4859                 2.3729
 Frc consts  --      1.1559                 1.1979                 2.0778
 IR Inten    --      0.5658                 0.2284                45.9773

                     52                     53                     54
                      A                      A                      A
 Frequencies --   1227.5539              1253.6395              1271.9082
 Red. masses --      3.3445                 1.8968                 1.4196
 Frc consts  --      2.9693                 1.7563                 1.3531
 IR Inten    --     37.7126                41.3808                 0.0264

                     55                     56                     57
                      A                      A                      A
 Frequencies --   1273.9491              1310.2442              1312.1297
 Red. masses --      1.4219                 1.5038                 1.6850
 Frc consts  --      1.3596                 1.5211                 1.7093
 IR Inten    --      0.0577                 4.1465                16.5424

                     58                     59                     60
                      A                      A                      A
 Frequencies --   1333.3877              1341.9052              1342.8312
 Red. masses --      1.1437                 1.1062                 2.5750
 Frc consts  --      1.1980                 1.1736                 2.7358
 IR Inten    --      0.0260                 0.0005                19.6239

                     61                     62                     63
                      A                      A                      A
 Frequencies --   1344.5962              1349.5753              1386.9044
 Red. masses --      1.1096                 1.0824                 1.5039
 Frc consts  --      1.1820                 1.1616                 1.7044
 IR Inten    --      1.0749                 0.9003                12.0242

                     64                     65                     66
                      A                      A                      A
 Frequencies --   1393.7802              1401.2633              1413.4754
 Red. masses --      1.8833                 1.7894                 1.6417
 Frc consts  --      2.1556                 2.0701                 1.9325
 IR Inten    --     30.1155                 3.6435                 1.1943

                     67                     68                     69
                      A                      A                      A
 Frequencies --   1418.8059              1444.3504              1458.3351
 Red. masses --      1.6088                 1.8779                 1.2149
 Frc consts  --      1.9081                 2.3082                 1.5223
 IR Inten    --      4.3090                 9.1799                 7.8176

                     70                     71                     72
                      A                      A                      A
 Frequencies --   1459.3378              1513.6360              1526.0727
 Red. masses --      1.2207                 1.1214                 1.1629
 Frc consts  --      1.5317                 1.5137                 1.5957
 IR Inten    --      8.4645                10.0061                 1.3416

                     73                     74                     75
                      A                      A                      A
 Frequencies --   1538.3622              1541.3837              1543.0393
 Red. masses --      1.9993                 1.1809                 1.0934
 Frc consts  --      2.7877                 1.6531                 1.5339
 IR Inten    --     29.1034                 4.9643                 1.1487

                     76                     77                     78
                      A                      A                      A
 Frequencies --   1546.7779              1547.0582              1551.2527
 Red. masses --      1.0542                 1.0671                 1.0447
 Frc consts  --      1.4861                 1.5048                 1.4811
 IR Inten    --      2.4296                 4.1377                13.1663

                     79                     80                     81
                      A                      A                      A
 Frequencies --   1551.4871              1557.4974              1557.9474
 Red. masses --      1.0451                 1.0923                 1.0959
 Frc consts  --      1.4821                 1.5612                 1.5673
 IR Inten    --     13.1535                10.3765                18.8540

                     82                     83                     84
                      A                      A                      A
 Frequencies --   1607.3596              1652.8874              1986.6902
 Red. masses --      2.2630                 3.0816                11.9722
 Frc consts  --      3.4448                 4.9604                27.8409
 IR Inten    --     25.0383                40.3296               103.7370

                     85                     86                     87
                      A                      A                      A
 Frequencies --   3055.3371              3055.9477              3060.1872
 Red. masses --      1.0568                 1.0574                 1.0575
 Frc consts  --      5.8127                 5.8182                 5.8350
 IR Inten    --      8.1789                 1.8866                 0.4019

                     88                     89                     90
                      A                      A                      A
 Frequencies --   3068.4254              3070.3309              3071.5807
 Red. masses --      1.0578                 1.0406                 1.0523
 Frc consts  --      5.8677                 5.7798                 5.8496
 IR Inten    --     53.3264                19.4030                35.2010

                     91                     92                     93
                      A                      A                      A
 Frequencies --   3071.7198              3078.3048              3083.1534
 Red. masses --      1.0350                 1.0587                 1.0999
 Frc consts  --      5.7537                 5.9107                 6.1603
 IR Inten    --     37.4291                16.4198                 2.5891

                     94                     95                     96
                      A                      A                      A
 Frequencies --   3086.9376              3094.1084              3104.9743
 Red. masses --      1.1004                 1.1028                 1.1019
 Frc consts  --      6.1782                 6.2201                 6.2590
 IR Inten    --      1.7665                 0.0012                 0.7223

                     97                     98                     99
                      A                      A                      A
 Frequencies --   3118.9650              3120.4769              3143.9133
 Red. masses --      1.1053                 1.1035                 1.1021
 Frc consts  --      6.3350                 6.3311                 6.4184
 IR Inten    --     29.7001                20.9026                61.2096

                    100                    101                    102
                      A                      A                      A
 Frequencies --   3144.5177              3153.6702              3154.1984
 Red. masses --      1.1019                 1.0995                 1.0997
 Frc consts  --      6.4192                 6.4426                 6.4462
 IR Inten    --     63.2942                36.3150                35.8030

                    103                    104                    105
                      A                      A                      A
 Frequencies --   3206.7256              3278.2226              3281.7777
 Red. masses --      1.0904                 1.0909                 1.0914
 Frc consts  --      6.6066                 6.9073                 6.9255
 IR Inten    --      8.6483                10.6304                 1.5132

 - Thermochemistry -
 -------------------
 Temperature   298.150 Kelvin.  Pressure   1.00000 Atm.
 Atom     1 has atomic number  6 and mass  12.00000

 Molecular mass:   213.16433 amu.
 Principal axes and moments of inertia in atomic units:
                           1         2         3
     Eigenvalues --  1470.58462********************
           X            0.99998   0.00633   0.00000
           Y           -0.00633   0.99998   0.00000
           Z            0.00000   0.00000   1.00000
 This molecule is an asymmetric top.
 Rotational symmetry number  1.
 Warning -- assumption of classical behavior for rotation
           may cause significant error
 Rotational temperatures (Kelvin)      0.05890     0.00857     0.00754
 Rotational constants (GHZ):           1.22723     0.17861     0.15714
 Zero-point vibrational energy     866507.2 (Joules/Mol)
                                  207.10019 (Kcal/Mol)
 Warning -- explicit consideration of  25 degrees of freedom as
           vibrations may cause significant error
 Vibrational temperatures:     34.23    71.42    89.98   129.40   131.07
          (Kelvin)            147.63   178.14   182.86   196.06   197.77
                              231.37   337.32   343.56   378.66   384.91
                              407.19   443.64   477.18   505.98   640.61
                              660.52   671.54   717.50   804.76   810.92
                              894.09  1039.90  1064.67  1097.81  1113.88
                             1147.67  1172.55  1191.55  1269.90  1338.08
                             1344.68  1355.93  1404.20  1404.41  1423.35
                             1480.67  1516.20  1520.38  1581.41  1585.95
                             1632.27  1653.99  1668.85  1672.27  1682.99
                             1754.00  1766.17  1803.71  1829.99  1832.93
                             1885.15  1887.86  1918.45  1930.70  1932.03
                             1934.57  1941.74  1995.44  2005.34  2016.10
                             2033.67  2041.34  2078.10  2098.22  2099.66
                             2177.78  2195.68  2213.36  2217.70  2220.09
                             2225.47  2225.87  2231.90  2232.24  2240.89
                             2241.54  2312.63  2378.13  2858.40  4395.94
                             4396.82  4402.92  4414.77  4417.52  4419.31
                             4419.51  4428.99  4435.96  4441.41  4451.73
                             4467.36  4487.49  4489.66  4523.38  4524.25
                             4537.42  4538.18  4613.76  4716.63  4721.74

 Zero-point correction=                           0.330035 (Hartree/Particle)
 Thermal correction to Energy=                    0.347424
 Thermal correction to Enthalpy=                  0.348368
 Thermal correction to Gibbs Free Energy=         0.282999
 Sum of electronic and zero-point Energies=           -621.292761
 Sum of electronic and thermal Energies=              -621.275372
 Sum of electronic and thermal Enthalpies=            -621.274428
 Sum of electronic and thermal Free Energies=         -621.339797

                     E (Thermal)             CV                S
                      KCal/Mol        Cal/Mol-Kelvin    Cal/Mol-Kelvin
 Total                  218.012             63.483            137.580
 Electronic               0.000              0.000              1.377
 Translational            0.889              2.981             41.974
 Rotational               0.889              2.981             33.500
 Vibrational            216.234             57.522             60.728
 Vibration     1          0.593              1.985              6.290
 Vibration     2          0.595              1.978              4.832
 Vibration     3          0.597              1.972              4.375
 Vibration     4          0.602              1.956              3.661
 Vibration     5          0.602              1.956              3.636
 Vibration     6          0.605              1.947              3.404
 Vibration     7          0.610              1.929              3.040
 Vibration     8          0.611              1.926              2.990
 Vibration     9          0.614              1.917              2.856
 Vibration    10          0.614              1.916              2.839
 Vibration    11          0.622              1.890              2.540
 Vibration    12          0.654              1.788              1.845
 Vibration    13          0.657              1.781              1.812
 Vibration    14          0.670              1.740              1.641
 Vibration    15          0.673              1.733              1.612
 Vibration    16          0.682              1.705              1.515
 Vibration    17          0.698              1.658              1.371
 Vibration    18          0.714              1.612              1.252
 Vibration    19          0.728              1.572              1.159
 Vibration    20          0.805              1.371              0.810
 Vibration    21          0.817              1.341              0.769
 Vibration    22          0.824              1.324              0.747
 Vibration    23          0.854              1.253              0.661
 Vibration    24          0.915              1.119              0.525
 Vibration    25          0.919              1.110              0.517

 Optimization completed.
    -- Stationary point found.
 Normal termination of Gaussian 09 at Fri May 10 16:29:49 2024.
