                         Program Version 5.0.4 -  RELEASE  -
|  1> ! B3LYP cc-pVDZ AUTOAUX
|  2> %pal nprocs 16 end
|  3> *XYZFile 0 2 opt.xyz
|  4> %EPRNMR
|  5>         GTENSOR   TRUE
|  6>         NUCLEI    = ALL H {SHIFT, AISO, ADIP, AORB}
|  7>         ORI       GIAO
|  8> END
|  9>
| 10>                          ****END OF INPUT****

CARTESIAN COORDINATES (ANGSTROEM)
---------------------------------
  C     -3.990231    0.213841   -0.298689
  C     -2.777202    0.134401   -0.264168
  C      2.881118   -0.106320   -0.120939
  C     -1.347580    0.049789   -0.226693
  C     -0.698663   -1.210432   -0.168978
  C      0.696414   -1.210949   -0.136033
  C      1.451516   -0.021244   -0.158159
  C      0.802554    1.238942   -0.215585
  C     -0.592525    1.239697   -0.248218
  H      1.240484   -2.154117   -0.091566
  H     -1.136490    2.183031   -0.291658
  C     -1.520796   -2.484849   -0.145693
  H     -2.176647   -2.488350   -1.035776
  H     -2.218070   -2.430135    0.710536
  C     -0.747760   -3.804774   -0.083711
  H     -0.066510   -3.882053   -0.951169
  H     -0.105100   -3.822574    0.815836
  C     -1.671277   -5.028796   -0.062159
  H     -2.353766   -4.954482    0.804809
  H     -2.318821   -5.011894   -0.958437
  C     -0.911004   -6.356092   -0.003542
  H     -0.279819   -6.416782    0.899916
  H     -0.247977   -6.477180   -0.877607
  C      1.625960    2.512302   -0.238909
  H      2.288489    2.510214    0.646135
  H      2.316797    2.461154   -1.100696
  C      0.854747    3.833459   -0.287928
  H      0.209453    3.860975   -1.184672
  H      0.180476    3.912331    0.583195
  C      1.786297    5.054577   -0.308234
  H      2.452926    5.030614    0.576943
  H      2.476574    4.960570   -1.179156
  C      1.071033    6.365835   -0.362651
  H      0.095267    6.402624   -0.863681
  C      1.766851    7.657378   -0.078213
  H      2.447636    7.917283   -0.923106
  H      2.441558    7.532993    0.792881
  C      0.820543    8.841876    0.167056
  H      0.163439    8.964772   -0.713802
  H      0.153001    8.598335    1.013255
  C      1.555999   10.154269    0.446799
  H      2.197776   10.071072    1.341050
  H      2.205841   10.437943   -0.399281
  C      4.094180   -0.186871   -0.089942
  H     -5.059895    0.285441   -0.327738
  H      5.163803   -0.259276   -0.061371
  H     -1.600271   -7.215913    0.013460
  H      0.851264   10.984019    0.618926

 Total Charge           Charge          ....    0
 Multiplicity           Mult            ....    2
 Number of Electrons    NEL             ....  153
 Basis Dimension        Dim             ....  429

ORBITAL ENERGIES
----------------
                 SPIN UP ORBITALS
  NO   OCC          E(Eh)            E(eV)
   0   1.0000     -10.212405      -277.8937
   1   1.0000     -10.212375      -277.8928
   2   1.0000     -10.201645      -277.6009
   3   1.0000     -10.201528      -277.5977
   4   1.0000     -10.192173      -277.3431
   5   1.0000     -10.192114      -277.3415
   6   1.0000     -10.191826      -277.3337
   7   1.0000     -10.191661      -277.3292
   8   1.0000     -10.187273      -277.2098
   9   1.0000     -10.186974      -277.2017
  10   1.0000     -10.186828      -277.1977
  11   1.0000     -10.186770      -277.1961
  12   1.0000     -10.184214      -277.1266
  13   1.0000     -10.183177      -277.0983
  14   1.0000     -10.181985      -277.0659
  15   1.0000     -10.181824      -277.0615
  16   1.0000     -10.181579      -277.0549
  17   1.0000     -10.181367      -277.0491
  18   1.0000     -10.179610      -277.0013
  19   1.0000     -10.175525      -276.8901
  20   1.0000     -10.174130      -276.8522
  21   1.0000      -0.874595       -23.7989
  22   1.0000      -0.819282       -22.2938
  23   1.0000      -0.805851       -21.9283
  24   1.0000      -0.795100       -21.6358
  25   1.0000      -0.785320       -21.3696
  26   1.0000      -0.763109       -20.7653
  27   1.0000      -0.751765       -20.4566
  28   1.0000      -0.732844       -19.9417
  29   1.0000      -0.720204       -19.5978
  30   1.0000      -0.706964       -19.2375
  31   1.0000      -0.675115       -18.3708
  32   1.0000      -0.643036       -17.4979
  33   1.0000      -0.637550       -17.3486
  34   1.0000      -0.611972       -16.6526
  35   1.0000      -0.590116       -16.0579
  36   1.0000      -0.579215       -15.7612
  37   1.0000      -0.564566       -15.3626
  38   1.0000      -0.562738       -15.3129
  39   1.0000      -0.541599       -14.7376
  40   1.0000      -0.524762       -14.2795
  41   1.0000      -0.498664       -13.5693
  42   1.0000      -0.484113       -13.1734
  43   1.0000      -0.476189       -12.9578
  44   1.0000      -0.471443       -12.8286
  45   1.0000      -0.470020       -12.7899
  46   1.0000      -0.455184       -12.3862
  47   1.0000      -0.433040       -11.7836
  48   1.0000      -0.430170       -11.7055
  49   1.0000      -0.427550       -11.6342
  50   1.0000      -0.421034       -11.4569
  51   1.0000      -0.416324       -11.3288
  52   1.0000      -0.409321       -11.1382
  53   1.0000      -0.407425       -11.0866
  54   1.0000      -0.388671       -10.5763
  55   1.0000      -0.384015       -10.4496
  56   1.0000      -0.382972       -10.4212
  57   1.0000      -0.370049       -10.0695
  58   1.0000      -0.364152        -9.9091
  59   1.0000      -0.357619        -9.7313
  60   1.0000      -0.356577        -9.7030
  61   1.0000      -0.349759        -9.5174
  62   1.0000      -0.336880        -9.1670
  63   1.0000      -0.335397        -9.1266
  64   1.0000      -0.329899        -8.9770
  65   1.0000      -0.328518        -8.9394
  66   1.0000      -0.326261        -8.8780
  67   1.0000      -0.325047        -8.8450
  68   1.0000      -0.322518        -8.7762
  69   1.0000      -0.319800        -8.7022
  70   1.0000      -0.315319        -8.5803
  71   1.0000      -0.279075        -7.5940
  72   1.0000      -0.275799        -7.5049
  73   1.0000      -0.274701        -7.4750
  74   1.0000      -0.246056        -6.6955
  75   1.0000      -0.219021        -5.9599
  76   1.0000      -0.181611        -4.9419
  77   0.0000      -0.050455        -1.3730
  78   0.0000      -0.002711        -0.0738
  79   0.0000       0.041101         1.1184
  80   0.0000       0.048114         1.3092
  81   0.0000       0.050468         1.3733

                 SPIN DOWN ORBITALS
  NO   OCC          E(Eh)            E(eV)
   0   1.0000     -10.212400      -277.8935
   1   1.0000     -10.212377      -277.8929
   2   1.0000     -10.201653      -277.6011
   3   1.0000     -10.201523      -277.5975
   4   1.0000     -10.192167      -277.3430
   5   1.0000     -10.192116      -277.3416
   6   1.0000     -10.191827      -277.3337
   7   1.0000     -10.191660      -277.3292
   8   1.0000     -10.187261      -277.2095
   9   1.0000     -10.186973      -277.2016
  10   1.0000     -10.186829      -277.1977
  11   1.0000     -10.186770      -277.1961
  12   1.0000     -10.185112      -277.1510
  13   1.0000     -10.182949      -277.0921
  14   1.0000     -10.182288      -277.0741
  15   1.0000     -10.181824      -277.0615
  16   1.0000     -10.181579      -277.0549
  17   1.0000     -10.179371      -276.9948
  18   1.0000     -10.175525      -276.8901
  19   1.0000     -10.174123      -276.8520
  20   1.0000     -10.168130      -276.6889
  21   1.0000      -0.874581       -23.7986
  22   1.0000      -0.818298       -22.2670
  23   1.0000      -0.799188       -21.7470
  24   1.0000      -0.795097       -21.6357
  25   1.0000      -0.783854       -21.3298
  26   1.0000      -0.761926       -20.7331
  27   1.0000      -0.751416       -20.4471
  28   1.0000      -0.728547       -19.8248
  29   1.0000      -0.720072       -19.5942
  30   1.0000      -0.703638       -19.1470
  31   1.0000      -0.674370       -18.3506
  32   1.0000      -0.642382       -17.4801
  33   1.0000      -0.636910       -17.3312
  34   1.0000      -0.609765       -16.5926
  35   1.0000      -0.588774       -16.0213
  36   1.0000      -0.578224       -15.7343
  37   1.0000      -0.564065       -15.3490
  38   1.0000      -0.547944       -14.9103
  39   1.0000      -0.541422       -14.7328
  40   1.0000      -0.524140       -14.2626
  41   1.0000      -0.498343       -13.5606
  42   1.0000      -0.484084       -13.1726
  43   1.0000      -0.476016       -12.9531
  44   1.0000      -0.470335       -12.7985
  45   1.0000      -0.466360       -12.6903
  46   1.0000      -0.452926       -12.3247
  47   1.0000      -0.431365       -11.7380
  48   1.0000      -0.427809       -11.6413
  49   1.0000      -0.426810       -11.6141
  50   1.0000      -0.420682       -11.4473
  51   1.0000      -0.416024       -11.3206
  52   1.0000      -0.406829       -11.0704
  53   1.0000      -0.402140       -10.9428
  54   1.0000      -0.387196       -10.5361
  55   1.0000      -0.382412       -10.4060
  56   1.0000      -0.379738       -10.3332
  57   1.0000      -0.368833       -10.0365
  58   1.0000      -0.362738        -9.8706
  59   1.0000      -0.356742        -9.7075
  60   1.0000      -0.354872        -9.6566
  61   1.0000      -0.348717        -9.4891
  62   1.0000      -0.335634        -9.1331
  63   1.0000      -0.333912        -9.0862
  64   1.0000      -0.328446        -8.9375
  65   1.0000      -0.327200        -8.9036
  66   1.0000      -0.325566        -8.8591
  67   1.0000      -0.324753        -8.8370
  68   1.0000      -0.321168        -8.7394
  69   1.0000      -0.319345        -8.6898
  70   1.0000      -0.312620        -8.5068
  71   1.0000      -0.279065        -7.5937
  72   1.0000      -0.275798        -7.5048
  73   1.0000      -0.274691        -7.4747
  74   1.0000      -0.245984        -6.6936
  75   1.0000      -0.218980        -5.9587
  76   0.0000      -0.050508        -1.3744
  77   0.0000      -0.036744        -0.9999
  78   0.0000      -0.002576        -0.0701
  79   0.0000       0.041134         1.1193
  80   0.0000       0.048132         1.3098

MULLIKEN ATOMIC CHARGES AND SPIN POPULATIONS
--------------------------------------------
   0 C :   -0.604652   -0.000085
   1 C :    0.626763    0.000044
   2 C :    0.626517   -0.000082
   3 C :   -0.038903   -0.000206
   4 C :   -0.064388    0.000365
   5 C :    0.020318   -0.000205
   6 C :   -0.036899    0.000413
   7 C :   -0.062709   -0.000390
   8 C :    0.021009    0.000444
   9 H :   -0.050849    0.000008
  10 H :   -0.050650   -0.000010
  11 C :    0.042820   -0.000029
  12 H :    0.031714    0.000017
  13 H :    0.031690    0.000015
  14 C :   -0.036703    0.000001
  15 H :    0.016366   -0.000000
  16 H :    0.016533    0.000001
  17 C :   -0.024243    0.000000
  18 H :    0.006158    0.000000
  19 H :    0.006141    0.000000
  20 C :    0.002965   -0.000000
  21 H :    0.017183    0.000000
  22 H :    0.017253    0.000000
  23 C :    0.045328    0.000986
  24 H :    0.032246    0.000153
  25 H :    0.032040    0.000266
  26 C :   -0.043672    0.007769
  27 H :    0.020023   -0.000853
  28 H :    0.020894    0.002712
  29 C :    0.067866   -0.064478
  30 H :    0.007140    0.019215
  31 H :    0.014333    0.058605
  32 C :   -0.113888    0.989973
  33 H :   -0.016368   -0.039696
  34 C :    0.039441   -0.064598
  35 H :    0.013009    0.059194
  36 H :    0.005040    0.018881
  37 C :   -0.045254    0.008170
  38 H :    0.008075   -0.000915
  39 H :    0.009093    0.002890
  40 C :   -0.002756    0.001172
  41 H :    0.016420    0.000161
  42 H :    0.016152    0.000216
  43 C :   -0.605622    0.000118
  44 H :   -0.028999    0.000003
  45 H :   -0.029080   -0.000005
  46 H :    0.012794    0.000000
  47 H :    0.012309   -0.000242
Sum of atomic charges         :   -0.0000000

LOEWDIN ATOMIC CHARGES AND SPIN POPULATIONS
-------------------------------------------
   0 C :   -0.050434   -0.000068
   1 C :   -0.001619    0.000020
   2 C :   -0.001656   -0.000021
   3 C :   -0.051574   -0.000110
   4 C :   -0.006236    0.000275
   5 C :   -0.004075   -0.000112
   6 C :   -0.051661    0.000288
   7 C :   -0.006374   -0.000199
   8 C :   -0.003863    0.000330
   9 H :    0.030254   -0.000000
  10 H :    0.030460    0.000012
  11 C :   -0.033919    0.000003
  12 H :    0.039416    0.000013
  13 H :    0.039387    0.000012
  14 C :   -0.043769    0.000001
  15 H :    0.024365   -0.000000
  16 H :    0.024371    0.000000
  17 C :   -0.047016    0.000000
  18 H :    0.024206    0.000000
  19 H :    0.024187    0.000000
  20 C :   -0.067655   -0.000000
  21 H :    0.025219    0.000000
  22 H :    0.025213    0.000000
  23 C :   -0.034073    0.000787
  24 H :    0.039587    0.000188
  25 H :    0.039193    0.000611
  26 C :   -0.039529    0.006876
  27 H :    0.025346   -0.000272
  28 H :    0.025540    0.001657
  29 C :   -0.056997    0.009427
  30 H :    0.028778    0.015111
  31 H :    0.030847    0.046888
  32 C :   -0.010116    0.830508
  33 H :    0.006797    0.006088
  34 C :   -0.061175    0.009252
  35 H :    0.029822    0.047327
  36 H :    0.027539    0.014837
  37 C :   -0.046924    0.007292
  38 H :    0.023919   -0.000301
  39 H :    0.023860    0.001824
  40 C :   -0.068737    0.000770
  41 H :    0.024962    0.000195
  42 H :    0.024571    0.000472
  43 C :   -0.050668    0.000102
  44 H :    0.022757   -0.000000
  45 H :    0.022730    0.000000
  46 H :    0.027511   -0.000000
  47 H :    0.027236   -0.000082

  Mayer bond orders larger than 0.100000
B(  0-C ,  1-C ) :   2.1204 B(  0-C , 44-H ) :   1.1183 B(  1-C ,  3-C ) :   0.9087
B(  2-C ,  6-C ) :   0.9075 B(  2-C , 43-C ) :   2.1200 B(  3-C ,  4-C ) :   1.3968
B(  3-C ,  8-C ) :   1.3721 B(  4-C ,  5-C ) :   1.4268 B(  4-C , 11-C ) :   1.0905
B(  5-C ,  6-C ) :   1.3731 B(  5-C ,  9-H ) :   0.9213 B(  6-C ,  7-C ) :   1.3978
B(  7-C ,  8-C ) :   1.4269 B(  7-C , 23-C ) :   1.0887 B(  8-C , 10-H ) :   0.9220
B( 11-C , 12-H ) :   0.8980 B( 11-C , 13-H ) :   0.8981 B( 11-C , 14-C ) :   1.1042
B( 14-C , 15-H ) :   0.9294 B( 14-C , 16-H ) :   0.9293 B( 14-C , 17-C ) :   1.0751
B( 17-C , 18-H ) :   0.9410 B( 17-C , 19-H ) :   0.9410 B( 17-C , 20-C ) :   1.1060
B( 20-C , 21-H ) :   0.9662 B( 20-C , 22-H ) :   0.9663 B( 20-C , 46-H ) :   0.9617
B( 23-C , 24-H ) :   0.8971 B( 23-C , 25-H ) :   0.8969 B( 23-C , 26-C ) :   1.1026
B( 26-C , 27-H ) :   0.9276 B( 26-C , 28-H ) :   0.9312 B( 26-C , 29-C ) :   1.0723
B( 29-C , 30-H ) :   0.9240 B( 29-C , 31-H ) :   0.9114 B( 29-C , 32-C ) :   1.0713
B( 32-C , 33-H ) :   0.9595 B( 32-C , 34-C ) :   1.0795 B( 34-C , 35-H ) :   0.9159
B( 34-C , 36-H ) :   0.9279 B( 34-C , 37-C ) :   1.0714 B( 37-C , 38-H ) :   0.9445
B( 37-C , 39-H ) :   0.9473 B( 37-C , 40-C ) :   1.1049 B( 40-C , 41-H ) :   0.9667
B( 40-C , 42-H ) :   0.9664 B( 40-C , 47-H ) :   0.9627 B( 43-C , 45-H ) :   1.1185

FINAL SINGLE POINT ENERGY      -815.802362792930

DIPOLE MOMENT
-------------
                                X             Y             Z
Electronic contribution:     -2.25141     -13.90306      -1.36512
Nuclear contribution   :      2.28618      13.91542       1.32608
                        -----------------------------------------
Total Dipole Moment    :      0.03477       0.01236      -0.03904
                        -----------------------------------------
Magnitude (a.u.)       :      0.05372
Magnitude (Debye)      :      0.13654

Rotational constants in cm-1:     0.020790     0.002924     0.002583
Rotational constants in MHz :   623.258386    87.651943    77.426920

CHEMICAL SHIELDING SUMMARY (ppm)  --  Orbital contribution
----------------------------------------------------------

  Nucleus  Element    Isotropic     Anisotropy
  -------  -------  ------------   ------------
      9       H           24.219         12.485
     10       H           24.211         12.486
     12       H           28.656          5.597
     13       H           28.660          5.588
     15       H           29.803          4.595
     16       H           29.800          4.614
     18       H           29.893          6.414
     19       H           29.894          6.414
     21       H           30.316          7.851
     22       H           30.315          7.861
     24       H           28.661          5.698
     25       H           28.625          5.577
     27       H           29.636          5.066
     28       H           29.601          4.666
     30       H           29.235          4.606
     31       H           28.876          5.018
     33       H           27.179          8.404
     35       H           29.001          5.286
     36       H           29.361          3.536
     38       H           29.868          6.447
     39       H           29.814          6.089
     41       H           30.442          7.858
     42       H           30.390          7.957
     44       H           28.118         10.432
     45       H           28.115         10.419
     46       H           30.112         10.263
     47       H           30.184          9.809

                             ****ORCA TERMINATED NORMALLY****
TOTAL RUN TIME: 0 days 1 hours 8 minutes 48 seconds 576 msec
