                         Program Version 5.0.4 -  RELEASE  -
|  1> ! B3LYP cc-pVDZ AUTOAUX
|  2> %pal nprocs 16 end
|  3> *XYZFile 0 2 opt_cc-pVDZ.xyz
|  4> %EPRNMR
|  5>         GTENSOR   TRUE
|  6>         NUCLEI    = ALL H {SHIFT, AISO, ADIP, AORB}
|  7>         ORI       GIAO
|  8> END
|  9>
| 10>                          ****END OF INPUT****

CARTESIAN COORDINATES (ANGSTROEM)
---------------------------------
  C     -3.990474    0.213479   -0.298481
  C     -2.777441    0.134144   -0.263858
  C      2.880897   -0.106043   -0.120379
  C     -1.347815    0.049669   -0.226224
  C     -0.698776   -1.210494   -0.168570
  C      0.696296   -1.210879   -0.135530
  C      1.451284   -0.021100   -0.157551
  C      0.802212    1.239014   -0.215171
  C     -0.592868    1.239641   -0.247866
  H      1.240450   -2.154000   -0.091082
  H     -1.136912    2.182924   -0.291454
  C     -1.520782   -2.484996   -0.145490
  H     -2.176636   -2.488439   -1.035570
  H     -2.218060   -2.430466    0.710748
  C     -0.747611   -3.804844   -0.083670
  H     -0.066124   -3.881843   -0.950966
  H     -0.105187   -3.822789    0.816044
  C     -1.670990   -5.028982   -0.062709
  H     -2.353926   -4.954869    0.803925
  H     -2.318086   -5.012047   -0.959309
  C     -0.910579   -6.356190   -0.003882
  H     -0.279930   -6.416960    0.899945
  H     -0.247011   -6.477025   -0.877573
  C      1.625503    2.512447   -0.238701
  H      2.287808    2.510699    0.646515
  H      2.316549    2.461102   -1.100306
  C      0.854202    3.833514   -0.288322
  H      0.209212    3.860788   -1.185293
  H      0.179615    3.912600    0.582541
  C      1.785706    5.054697   -0.308651
  H      2.452363    5.030736    0.576528
  H      2.476200    4.960447   -1.179361
  C      1.070499    6.365994   -0.363119
  H      0.094601    6.402918   -0.863870
  C      1.766767    7.657330   -0.078817
  H      2.447342    7.917413   -0.923811
  H      2.441944    7.532628    0.791881
  C      0.820963    8.842124    0.167214
  H      0.163448    8.965423   -0.713282
  H      0.153759    8.598599    1.013688
  C      1.557033   10.154162    0.446888
  H      2.199385   10.070464    1.340682
  H      2.206392   10.437938   -0.399527
  C      4.093969   -0.186466   -0.089393
  H     -5.060140    0.285000   -0.327657
  H      5.163597   -0.258788   -0.060858
  H     -1.599741   -7.216105    0.012542
  H      0.852686   10.984082    0.619795

 Total Charge           Charge          ....    0
 Multiplicity           Mult            ....    2
 Number of Electrons    NEL             ....  153
 Basis Dimension        Dim             ....  429

ORBITAL ENERGIES
----------------
                 SPIN UP ORBITALS
  NO   OCC          E(Eh)            E(eV)
   0   1.0000     -10.212395      -277.8934
   1   1.0000     -10.212353      -277.8923
   2   1.0000     -10.201702      -277.6024
   3   1.0000     -10.201558      -277.5985
   4   1.0000     -10.192229      -277.3447
   5   1.0000     -10.192154      -277.3426
   6   1.0000     -10.191813      -277.3333
   7   1.0000     -10.191651      -277.3289
   8   1.0000     -10.187285      -277.2101
   9   1.0000     -10.186960      -277.2013
  10   1.0000     -10.186797      -277.1968
  11   1.0000     -10.186767      -277.1960
  12   1.0000     -10.184186      -277.1258
  13   1.0000     -10.183181      -277.0984
  14   1.0000     -10.181991      -277.0661
  15   1.0000     -10.181825      -277.0615
  16   1.0000     -10.181571      -277.0546
  17   1.0000     -10.181338      -277.0483
  18   1.0000     -10.179599      -277.0010
  19   1.0000     -10.175511      -276.8897
  20   1.0000     -10.174122      -276.8519
  21   1.0000      -0.874610       -23.7993
  22   1.0000      -0.819285       -22.2939
  23   1.0000      -0.805842       -21.9281
  24   1.0000      -0.795098       -21.6357
  25   1.0000      -0.785316       -21.3695
  26   1.0000      -0.763111       -20.7653
  27   1.0000      -0.751757       -20.4563
  28   1.0000      -0.732846       -19.9418
  29   1.0000      -0.720201       -19.5977
  30   1.0000      -0.706965       -19.2375
  31   1.0000      -0.675108       -18.3706
  32   1.0000      -0.643038       -17.4980
  33   1.0000      -0.637551       -17.3486
  34   1.0000      -0.611974       -16.6526
  35   1.0000      -0.590118       -16.0579
  36   1.0000      -0.579212       -15.7612
  37   1.0000      -0.564569       -15.3627
  38   1.0000      -0.562746       -15.3131
  39   1.0000      -0.541596       -14.7376
  40   1.0000      -0.524765       -14.2796
  41   1.0000      -0.498666       -13.5694
  42   1.0000      -0.484113       -13.1734
  43   1.0000      -0.476198       -12.9580
  44   1.0000      -0.471434       -12.8284
  45   1.0000      -0.470017       -12.7898
  46   1.0000      -0.455173       -12.3859
  47   1.0000      -0.433045       -11.7838
  48   1.0000      -0.430174       -11.7056
  49   1.0000      -0.427558       -11.6344
  50   1.0000      -0.421032       -11.4569
  51   1.0000      -0.416325       -11.3288
  52   1.0000      -0.409320       -11.1382
  53   1.0000      -0.407418       -11.0864
  54   1.0000      -0.388674       -10.5764
  55   1.0000      -0.384014       -10.4495
  56   1.0000      -0.382968       -10.4211
  57   1.0000      -0.370039       -10.0693
  58   1.0000      -0.364154        -9.9091
  59   1.0000      -0.357627        -9.7315
  60   1.0000      -0.356586        -9.7032
  61   1.0000      -0.349754        -9.5173
  62   1.0000      -0.336885        -9.1671
  63   1.0000      -0.335395        -9.1266
  64   1.0000      -0.329904        -8.9771
  65   1.0000      -0.328515        -8.9394
  66   1.0000      -0.326257        -8.8779
  67   1.0000      -0.325044        -8.8449
  68   1.0000      -0.322509        -8.7759
  69   1.0000      -0.319796        -8.7021
  70   1.0000      -0.315309        -8.5800
  71   1.0000      -0.279071        -7.5939
  72   1.0000      -0.275791        -7.5047
  73   1.0000      -0.274693        -7.4748
  74   1.0000      -0.246075        -6.6960
  75   1.0000      -0.219020        -5.9598
  76   1.0000      -0.181621        -4.9422
  77   0.0000      -0.050457        -1.3730
  78   0.0000      -0.002729        -0.0742
  79   0.0000       0.041106         1.1186
  80   0.0000       0.048114         1.3092
  81   0.0000       0.050474         1.3735

                 SPIN DOWN ORBITALS
  NO   OCC          E(Eh)            E(eV)
   0   1.0000     -10.212389      -277.8932
   1   1.0000     -10.212356      -277.8923
   2   1.0000     -10.201710      -277.6027
   3   1.0000     -10.201553      -277.5984
   4   1.0000     -10.192222      -277.3445
   5   1.0000     -10.192157      -277.3427
   6   1.0000     -10.191814      -277.3334
   7   1.0000     -10.191650      -277.3289
   8   1.0000     -10.187273      -277.2098
   9   1.0000     -10.186959      -277.2012
  10   1.0000     -10.186798      -277.1969
  11   1.0000     -10.186768      -277.1960
  12   1.0000     -10.185086      -277.1503
  13   1.0000     -10.182952      -277.0922
  14   1.0000     -10.182261      -277.0734
  15   1.0000     -10.181825      -277.0615
  16   1.0000     -10.181571      -277.0546
  17   1.0000     -10.179359      -276.9944
  18   1.0000     -10.175511      -276.8897
  19   1.0000     -10.174115      -276.8518
  20   1.0000     -10.168132      -276.6889
  21   1.0000      -0.874596       -23.7990
  22   1.0000      -0.818303       -22.2672
  23   1.0000      -0.799180       -21.7468
  24   1.0000      -0.795096       -21.6357
  25   1.0000      -0.783849       -21.3296
  26   1.0000      -0.761929       -20.7331
  27   1.0000      -0.751408       -20.4469
  28   1.0000      -0.728547       -19.8248
  29   1.0000      -0.720068       -19.5940
  30   1.0000      -0.703639       -19.1470
  31   1.0000      -0.674366       -18.3504
  32   1.0000      -0.642385       -17.4802
  33   1.0000      -0.636911       -17.3312
  34   1.0000      -0.609767       -16.5926
  35   1.0000      -0.588775       -16.0214
  36   1.0000      -0.578221       -15.7342
  37   1.0000      -0.564069       -15.3491
  38   1.0000      -0.547950       -14.9105
  39   1.0000      -0.541420       -14.7328
  40   1.0000      -0.524143       -14.2626
  41   1.0000      -0.498345       -13.5606
  42   1.0000      -0.484084       -13.1726
  43   1.0000      -0.476025       -12.9533
  44   1.0000      -0.470334       -12.7984
  45   1.0000      -0.466354       -12.6901
  46   1.0000      -0.452915       -12.3244
  47   1.0000      -0.431373       -11.7382
  48   1.0000      -0.427811       -11.6413
  49   1.0000      -0.426816       -11.6143
  50   1.0000      -0.420681       -11.4473
  51   1.0000      -0.416025       -11.3206
  52   1.0000      -0.406830       -11.0704
  53   1.0000      -0.402131       -10.9426
  54   1.0000      -0.387199       -10.5362
  55   1.0000      -0.382416       -10.4061
  56   1.0000      -0.379731       -10.3330
  57   1.0000      -0.368824       -10.0362
  58   1.0000      -0.362738        -9.8706
  59   1.0000      -0.356750        -9.7076
  60   1.0000      -0.354882        -9.6568
  61   1.0000      -0.348712        -9.4889
  62   1.0000      -0.335638        -9.1332
  63   1.0000      -0.333907        -9.0861
  64   1.0000      -0.328444        -8.9374
  65   1.0000      -0.327208        -8.9038
  66   1.0000      -0.325561        -8.8590
  67   1.0000      -0.324752        -8.8370
  68   1.0000      -0.321159        -8.7392
  69   1.0000      -0.319338        -8.6896
  70   1.0000      -0.312611        -8.5066
  71   1.0000      -0.279061        -7.5936
  72   1.0000      -0.275790        -7.5046
  73   1.0000      -0.274684        -7.4745
  74   1.0000      -0.246003        -6.6941
  75   1.0000      -0.218980        -5.9587
  76   0.0000      -0.050509        -1.3744
  77   0.0000      -0.036752        -1.0001
  78   0.0000      -0.002594        -0.0706
  79   0.0000       0.041139         1.1194
  80   0.0000       0.048132         1.3098

MULLIKEN ATOMIC CHARGES AND SPIN POPULATIONS
--------------------------------------------
   0 C :   -0.604596   -0.000087
   1 C :    0.626728    0.000046
   2 C :    0.626539   -0.000084
   3 C :   -0.038837   -0.000208
   4 C :   -0.064425    0.000367
   5 C :    0.020273   -0.000207
   6 C :   -0.036857    0.000415
   7 C :   -0.062779   -0.000391
   8 C :    0.020945    0.000447
   9 H :   -0.050839    0.000008
  10 H :   -0.050634   -0.000010
  11 C :    0.042838   -0.000029
  12 H :    0.031714    0.000017
  13 H :    0.031696    0.000015
  14 C :   -0.036711    0.000001
  15 H :    0.016371   -0.000000
  16 H :    0.016530    0.000001
  17 C :   -0.024234    0.000000
  18 H :    0.006155    0.000000
  19 H :    0.006139    0.000000
  20 C :    0.002979   -0.000000
  21 H :    0.017180    0.000000
  22 H :    0.017247    0.000000
  23 C :    0.045320    0.000982
  24 H :    0.032255    0.000153
  25 H :    0.032048    0.000266
  26 C :   -0.043665    0.007784
  27 H :    0.020018   -0.000855
  28 H :    0.020899    0.002710
  29 C :    0.067846   -0.064525
  30 H :    0.007133    0.019234
  31 H :    0.014320    0.058615
  32 C :   -0.113814    0.990025
  33 H :   -0.016364   -0.039724
  34 C :    0.039427   -0.064643
  35 H :    0.012998    0.059206
  36 H :    0.005021    0.018890
  37 C :   -0.045235    0.008191
  38 H :    0.008071   -0.000918
  39 H :    0.009087    0.002887
  40 C :   -0.002750    0.001170
  41 H :    0.016415    0.000162
  42 H :    0.016150    0.000217
  43 C :   -0.605610    0.000120
  44 H :   -0.029005    0.000003
  45 H :   -0.029086   -0.000005
  46 H :    0.012790    0.000000
  47 H :    0.012308   -0.000242
Sum of atomic charges         :   -0.0000000

LOEWDIN ATOMIC CHARGES AND SPIN POPULATIONS
-------------------------------------------
   0 C :   -0.050409   -0.000069
   1 C :   -0.001625    0.000021
   2 C :   -0.001644   -0.000022
   3 C :   -0.051535   -0.000111
   4 C :   -0.006258    0.000276
   5 C :   -0.004101   -0.000114
   6 C :   -0.051634    0.000289
   7 C :   -0.006421   -0.000200
   8 C :   -0.003902    0.000332
   9 H :    0.030260   -0.000000
  10 H :    0.030468    0.000012
  11 C :   -0.033913    0.000003
  12 H :    0.039417    0.000013
  13 H :    0.039391    0.000012
  14 C :   -0.043773    0.000001
  15 H :    0.024365   -0.000000
  16 H :    0.024372    0.000000
  17 C :   -0.047011    0.000000
  18 H :    0.024202    0.000000
  19 H :    0.024187    0.000000
  20 C :   -0.067647   -0.000000
  21 H :    0.025217    0.000000
  22 H :    0.025210    0.000000
  23 C :   -0.034072    0.000785
  24 H :    0.039594    0.000188
  25 H :    0.039197    0.000611
  26 C :   -0.039535    0.006882
  27 H :    0.025349   -0.000273
  28 H :    0.025535    0.001656
  29 C :   -0.056990    0.009406
  30 H :    0.028778    0.015124
  31 H :    0.030839    0.046891
  32 C :   -0.010096    0.830531
  33 H :    0.006797    0.006074
  34 C :   -0.061169    0.009231
  35 H :    0.029815    0.047331
  36 H :    0.027535    0.014839
  37 C :   -0.046925    0.007305
  38 H :    0.023915   -0.000302
  39 H :    0.023856    0.001822
  40 C :   -0.068732    0.000769
  41 H :    0.024962    0.000195
  42 H :    0.024570    0.000472
  43 C :   -0.050663    0.000103
  44 H :    0.022753   -0.000000
  45 H :    0.022726    0.000000
  46 H :    0.027509   -0.000000
  47 H :    0.027235   -0.000082

  Mayer bond orders larger than 0.100000
B(  0-C ,  1-C ) :   2.1205 B(  0-C , 44-H ) :   1.1183 B(  1-C ,  3-C ) :   0.9087
B(  2-C ,  6-C ) :   0.9075 B(  2-C , 43-C ) :   2.1200 B(  3-C ,  4-C ) :   1.3968
B(  3-C ,  8-C ) :   1.3721 B(  4-C ,  5-C ) :   1.4268 B(  4-C , 11-C ) :   1.0905
B(  5-C ,  6-C ) :   1.3731 B(  5-C ,  9-H ) :   0.9213 B(  6-C ,  7-C ) :   1.3978
B(  7-C ,  8-C ) :   1.4269 B(  7-C , 23-C ) :   1.0887 B(  8-C , 10-H ) :   0.9220
B( 11-C , 12-H ) :   0.8980 B( 11-C , 13-H ) :   0.8981 B( 11-C , 14-C ) :   1.1042
B( 14-C , 15-H ) :   0.9294 B( 14-C , 16-H ) :   0.9293 B( 14-C , 17-C ) :   1.0751
B( 17-C , 18-H ) :   0.9410 B( 17-C , 19-H ) :   0.9410 B( 17-C , 20-C ) :   1.1060
B( 20-C , 21-H ) :   0.9662 B( 20-C , 22-H ) :   0.9663 B( 20-C , 46-H ) :   0.9617
B( 23-C , 24-H ) :   0.8971 B( 23-C , 25-H ) :   0.8969 B( 23-C , 26-C ) :   1.1026
B( 26-C , 27-H ) :   0.9277 B( 26-C , 28-H ) :   0.9312 B( 26-C , 29-C ) :   1.0723
B( 29-C , 30-H ) :   0.9240 B( 29-C , 31-H ) :   0.9114 B( 29-C , 32-C ) :   1.0713
B( 32-C , 33-H ) :   0.9595 B( 32-C , 34-C ) :   1.0795 B( 34-C , 35-H ) :   0.9159
B( 34-C , 36-H ) :   0.9279 B( 34-C , 37-C ) :   1.0714 B( 37-C , 38-H ) :   0.9445
B( 37-C , 39-H ) :   0.9473 B( 37-C , 40-C ) :   1.1049 B( 40-C , 41-H ) :   0.9667
B( 40-C , 42-H ) :   0.9664 B( 40-C , 47-H ) :   0.9627 B( 43-C , 45-H ) :   1.1185

FINAL SINGLE POINT ENERGY      -815.802361982997

DIPOLE MOMENT
-------------
                                X             Y             Z
Electronic contribution:     -2.25565     -13.90278      -1.36081
Nuclear contribution   :      2.29039      13.91507       1.32161
                        -----------------------------------------
Total Dipole Moment    :      0.03474       0.01229      -0.03920
                        -----------------------------------------
Magnitude (a.u.)       :      0.05380
Magnitude (Debye)      :      0.13675

Rotational constants in cm-1:     0.020792     0.002924     0.002583
Rotational constants in MHz :   623.315327    87.649373    77.425815

CHEMICAL SHIELDING SUMMARY (ppm)  --  Orbital contribution
----------------------------------------------------------

  Nucleus  Element    Isotropic     Anisotropy
  -------  -------  ------------   ------------
      9       H           24.217         12.489
     10       H           24.208         12.491
     12       H           28.656          5.598
     13       H           28.660          5.587
     15       H           29.801          4.595
     16       H           29.800          4.615
     18       H           29.894          6.414
     19       H           29.893          6.414
     21       H           30.316          7.850
     22       H           30.314          7.863
     24       H           28.660          5.697
     25       H           28.623          5.578
     27       H           29.633          5.065
     28       H           29.599          4.667
     30       H           29.233          4.608
     31       H           28.875          5.016
     33       H           27.177          8.400
     35       H           29.002          5.287
     36       H           29.359          3.541
     38       H           29.871          6.445
     39       H           29.814          6.086
     41       H           30.442          7.859
     42       H           30.391          7.955
     44       H           28.119         10.430
     45       H           28.116         10.419
     46       H           30.113         10.262
     47       H           30.187          9.806

                             ****ORCA TERMINATED NORMALLY****
TOTAL RUN TIME: 0 days 1 hours 7 minutes 49 seconds 698 msec
