                         Program Version 5.0.4 -  RELEASE  -
|  1> ! B3LYP EPR-II AUTOAUX
|  2> %pal nprocs 16 end
|  3> *XYZFile 0 2 opt_EPRII.xyz
|  4> %EPRNMR
|  5>         GTENSOR   TRUE
|  6>         NUCLEI    = ALL H {SHIFT, AISO, ADIP, AORB}
|  7>         ORI       GIAO
|  8> END
|  9>
| 10>                          ****END OF INPUT****

CARTESIAN COORDINATES (ANGSTROEM)
---------------------------------
  C     -3.999402    0.213685   -0.312346
  C     -2.781646    0.139199   -0.279563
  C      2.885064   -0.115833   -0.143630
  C     -1.349191    0.051342   -0.243667
  C     -0.703564   -1.213530   -0.180788
  C      0.695159   -1.219680   -0.150529
  C      1.452624   -0.027473   -0.178968
  C      0.807017    1.237436   -0.239477
  C     -0.591703    1.243797   -0.271141
  H      1.232344   -2.159771   -0.103275
  H     -1.128899    2.184032   -0.317045
  C     -1.532392   -2.488816   -0.148153
  H     -2.179448   -2.501079   -1.035488
  H     -2.220163   -2.429221    0.705979
  C     -0.751709   -3.810467   -0.075235
  H     -0.080718   -3.896558   -0.940406
  H     -0.114007   -3.819586    0.818849
  C     -1.678891   -5.038705   -0.038189
  H     -2.351361   -4.958566    0.826232
  H     -2.320524   -5.035157   -0.929332
  C     -0.909129   -6.368999    0.033916
  H     -0.280880   -6.412178    0.930789
  H     -0.254409   -6.492930   -0.836097
  C      1.637400    2.511433   -0.265380
  H      2.291639    2.511234    0.616765
  H      2.318362    2.460718   -1.125675
  C      0.859604    3.835135   -0.314206
  H      0.226440    3.866022   -1.210469
  H      0.188546    3.911025    0.550257
  C      1.798012    5.058230   -0.323509
  H      2.442759    5.033856    0.567958
  H      2.490480    4.965092   -1.181865
  C      1.078709    6.375211   -0.385546
  H      0.119449    6.416637   -0.902426
  C      1.772366    7.668430   -0.066000
  H      2.464457    7.939372   -0.886231
  H      2.414409    7.533250    0.817778
  C      0.814060    8.852804    0.173338
  H      0.186783    8.990460   -0.717074
  H      0.134343    8.600514    0.996591
  C      1.550236   10.165209    0.492184
  H      2.166759   10.061585    1.392301
  H      2.212714   10.455496   -0.331308
  C      4.102879   -0.190997   -0.114314
  H     -5.062864    0.281032   -0.339843
  H      5.166323   -0.258816   -0.087579
  H     -1.592755   -7.223828    0.062836
  H      0.846310   10.986606    0.661613

 Total Charge           Charge          ....    0
 Multiplicity           Mult            ....    2
 Number of Electrons    NEL             ....  153
 Basis Dimension        Dim             ....  546

ORBITAL ENERGIES
----------------
                 SPIN UP ORBITALS
  NO   OCC          E(Eh)            E(eV)
   0   1.0000     -10.224077      -278.2113
   1   1.0000     -10.224072      -278.2111
   2   1.0000     -10.212254      -277.8896
   3   1.0000     -10.212168      -277.8872
   4   1.0000     -10.207184      -277.7516
   5   1.0000     -10.206969      -277.7458
   6   1.0000     -10.200073      -277.5581
   7   1.0000     -10.200007      -277.5563
   8   1.0000     -10.198213      -277.5075
   9   1.0000     -10.198027      -277.5024
  10   1.0000     -10.187651      -277.2201
  11   1.0000     -10.187196      -277.2077
  12   1.0000     -10.185835      -277.1707
  13   1.0000     -10.183959      -277.1196
  14   1.0000     -10.182627      -277.0834
  15   1.0000     -10.181501      -277.0527
  16   1.0000     -10.181081      -277.0413
  17   1.0000     -10.181015      -277.0395
  18   1.0000     -10.178704      -276.9766
  19   1.0000     -10.170929      -276.7650
  20   1.0000     -10.169327      -276.7214
  21   1.0000      -0.873025       -23.7562
  22   1.0000      -0.817156       -22.2360
  23   1.0000      -0.802623       -21.8405
  24   1.0000      -0.793713       -21.5980
  25   1.0000      -0.782606       -21.2958
  26   1.0000      -0.760825       -20.7031
  27   1.0000      -0.752592       -20.4791
  28   1.0000      -0.730647       -19.8819
  29   1.0000      -0.721204       -19.6250
  30   1.0000      -0.705200       -19.1895
  31   1.0000      -0.673802       -18.3351
  32   1.0000      -0.643043       -17.4981
  33   1.0000      -0.637539       -17.3483
  34   1.0000      -0.612109       -16.6563
  35   1.0000      -0.590664       -16.0728
  36   1.0000      -0.580026       -15.7833
  37   1.0000      -0.565704       -15.3936
  38   1.0000      -0.563314       -15.3285
  39   1.0000      -0.544534       -14.8175
  40   1.0000      -0.527232       -14.3467
  41   1.0000      -0.499686       -13.5971
  42   1.0000      -0.485282       -13.2052
  43   1.0000      -0.475099       -12.9281
  44   1.0000      -0.471882       -12.8406
  45   1.0000      -0.470693       -12.8082
  46   1.0000      -0.455688       -12.3999
  47   1.0000      -0.432821       -11.7777
  48   1.0000      -0.428002       -11.6465
  49   1.0000      -0.426771       -11.6130
  50   1.0000      -0.421975       -11.4825
  51   1.0000      -0.415691       -11.3115
  52   1.0000      -0.409556       -11.1446
  53   1.0000      -0.406101       -11.0506
  54   1.0000      -0.387883       -10.5548
  55   1.0000      -0.384647       -10.4668
  56   1.0000      -0.381690       -10.3863
  57   1.0000      -0.371491       -10.1088
  58   1.0000      -0.363757        -9.8983
  59   1.0000      -0.356622        -9.7042
  60   1.0000      -0.355682        -9.6786
  61   1.0000      -0.351450        -9.5634
  62   1.0000      -0.337180        -9.1751
  63   1.0000      -0.335725        -9.1355
  64   1.0000      -0.329223        -8.9586
  65   1.0000      -0.328030        -8.9261
  66   1.0000      -0.327441        -8.9101
  67   1.0000      -0.324382        -8.8269
  68   1.0000      -0.322601        -8.7784
  69   1.0000      -0.321320        -8.7436
  70   1.0000      -0.312153        -8.4941
  71   1.0000      -0.280144        -7.6231
  72   1.0000      -0.277259        -7.5446
  73   1.0000      -0.276147        -7.5143
  74   1.0000      -0.246702        -6.7131
  75   1.0000      -0.220493        -5.9999
  76   1.0000      -0.180879        -4.9220
  77   0.0000      -0.053864        -1.4657
  78   0.0000      -0.006204        -0.1688
  79   0.0000       0.018880         0.5137
  80   0.0000       0.022212         0.6044
  81   0.0000       0.024818         0.6753

                 SPIN DOWN ORBITALS
  NO   OCC          E(Eh)            E(eV)
   0   1.0000     -10.224078      -278.2113
   1   1.0000     -10.224067      -278.2110
   2   1.0000     -10.212263      -277.8898
   3   1.0000     -10.212163      -277.8871
   4   1.0000     -10.207185      -277.7516
   5   1.0000     -10.206969      -277.7457
   6   1.0000     -10.200067      -277.5579
   7   1.0000     -10.200010      -277.5564
   8   1.0000     -10.198212      -277.5075
   9   1.0000     -10.198028      -277.5025
  10   1.0000     -10.187640      -277.2198
  11   1.0000     -10.187197      -277.2077
  12   1.0000     -10.184832      -277.1434
  13   1.0000     -10.182390      -277.0769
  14   1.0000     -10.181947      -277.0649
  15   1.0000     -10.181501      -277.0527
  16   1.0000     -10.181015      -277.0395
  17   1.0000     -10.178467      -276.9702
  18   1.0000     -10.172082      -276.7964
  19   1.0000     -10.170929      -276.7650
  20   1.0000     -10.169321      -276.7213
  21   1.0000      -0.873013       -23.7559
  22   1.0000      -0.816403       -22.2154
  23   1.0000      -0.796364       -21.6702
  24   1.0000      -0.793536       -21.5932
  25   1.0000      -0.780868       -21.2485
  26   1.0000      -0.759753       -20.6739
  27   1.0000      -0.752276       -20.4705
  28   1.0000      -0.726440       -19.7674
  29   1.0000      -0.721088       -19.6218
  30   1.0000      -0.701780       -19.0964
  31   1.0000      -0.673033       -18.3142
  32   1.0000      -0.642520       -17.4839
  33   1.0000      -0.636819       -17.3287
  34   1.0000      -0.609942       -16.5974
  35   1.0000      -0.589341       -16.0368
  36   1.0000      -0.578987       -15.7550
  37   1.0000      -0.565290       -15.3823
  38   1.0000      -0.548241       -14.9184
  39   1.0000      -0.544234       -14.8093
  40   1.0000      -0.526655       -14.3310
  41   1.0000      -0.499350       -13.5880
  42   1.0000      -0.485258       -13.2045
  43   1.0000      -0.474931       -12.9235
  44   1.0000      -0.471049       -12.8179
  45   1.0000      -0.467069       -12.7096
  46   1.0000      -0.453285       -12.3345
  47   1.0000      -0.432000       -11.7553
  48   1.0000      -0.426371       -11.6022
  49   1.0000      -0.424666       -11.5558
  50   1.0000      -0.421694       -11.4749
  51   1.0000      -0.415406       -11.3038
  52   1.0000      -0.405391       -11.0313
  53   1.0000      -0.402656       -10.9568
  54   1.0000      -0.386232       -10.5099
  55   1.0000      -0.382060       -10.3964
  56   1.0000      -0.379485       -10.3263
  57   1.0000      -0.370341       -10.0775
  58   1.0000      -0.362280        -9.8581
  59   1.0000      -0.355183        -9.6650
  60   1.0000      -0.354591        -9.6489
  61   1.0000      -0.350466        -9.5367
  62   1.0000      -0.335560        -9.1310
  63   1.0000      -0.334594        -9.1048
  64   1.0000      -0.327953        -8.9241
  65   1.0000      -0.327411        -8.9093
  66   1.0000      -0.325914        -8.8686
  67   1.0000      -0.322971        -8.7885
  68   1.0000      -0.322433        -8.7738
  69   1.0000      -0.320888        -8.7318
  70   1.0000      -0.309286        -8.4161
  71   1.0000      -0.280136        -7.6229
  72   1.0000      -0.277258        -7.5446
  73   1.0000      -0.276135        -7.5140
  74   1.0000      -0.246645        -6.7115
  75   1.0000      -0.220460        -5.9990
  76   0.0000      -0.053875        -1.4660
  77   0.0000      -0.037430        -1.0185
  78   0.0000      -0.006073        -0.1653
  79   0.0000       0.019006         0.5172
  80   0.0000       0.022415         0.6099

MULLIKEN ATOMIC CHARGES AND SPIN POPULATIONS
--------------------------------------------
   0 C :   -0.538102   -0.000079
   1 C :   -0.004487    0.000023
   2 C :   -0.003974   -0.000086
   3 C :    0.390022   -0.000158
   4 C :    0.325491    0.000284
   5 C :   -0.413809   -0.000199
   6 C :    0.389767    0.000478
   7 C :    0.328161   -0.001124
   8 C :   -0.415899    0.000726
   9 H :    0.135893    0.000009
  10 H :    0.136320   -0.000017
  11 C :   -0.390600   -0.000019
  12 H :    0.156104    0.000015
  13 H :    0.155962    0.000014
  14 C :   -0.268568    0.000004
  15 H :    0.142177    0.000000
  16 H :    0.142000    0.000000
  17 C :   -0.263720   -0.000000
  18 H :    0.145336    0.000000
  19 H :    0.145203    0.000000
  20 C :   -0.511243   -0.000000
  21 H :    0.159921    0.000000
  22 H :    0.160031    0.000000
  23 C :   -0.395732    0.000978
  24 H :    0.156629    0.000184
  25 H :    0.155457    0.000037
  26 C :   -0.296239    0.011520
  27 H :    0.147311   -0.000545
  28 H :    0.158480   -0.001126
  29 C :   -0.275447   -0.065252
  30 H :    0.148598    0.018651
  31 H :    0.148072    0.053129
  32 C :   -0.136019    1.013109
  33 H :    0.115046   -0.049082
  34 C :   -0.283783   -0.064116
  35 H :    0.148572    0.053830
  36 H :    0.145742    0.019187
  37 C :   -0.278328    0.010716
  38 H :    0.148157   -0.000570
  39 H :    0.158758   -0.000634
  40 C :   -0.510613   -0.000146
  41 H :    0.160432    0.000185
  42 H :    0.159041    0.000173
  43 C :   -0.537189    0.000102
  44 H :    0.184291    0.000003
  45 H :    0.184160   -0.000004
  46 H :    0.144912   -0.000000
  47 H :    0.147707   -0.000205
Sum of atomic charges         :   -0.0000000

LOEWDIN ATOMIC CHARGES AND SPIN POPULATIONS
-------------------------------------------
   0 C :   -0.059730   -0.000065
   1 C :   -0.029550    0.000022
   2 C :   -0.029559   -0.000013
   3 C :   -0.069178   -0.000099
   4 C :   -0.040671    0.000232
   5 C :   -0.005405   -0.000104
   6 C :   -0.069381    0.000262
   7 C :   -0.040892   -0.000184
   8 C :   -0.005119    0.000314
   9 H :    0.061062   -0.000000
  10 H :    0.061232    0.000012
  11 C :   -0.043040    0.000002
  12 H :    0.059559    0.000011
  13 H :    0.059597    0.000010
  14 C :   -0.079709    0.000001
  15 H :    0.044530    0.000000
  16 H :    0.044543    0.000000
  17 C :   -0.089908    0.000000
  18 H :    0.041097    0.000000
  19 H :    0.041095    0.000000
  20 C :   -0.078764   -0.000000
  21 H :    0.034074    0.000000
  22 H :    0.034048    0.000000
  23 C :   -0.043298    0.001012
  24 H :    0.059768    0.000145
  25 H :    0.059411    0.000386
  26 C :   -0.073134    0.008790
  27 H :    0.044613    0.000012
  28 H :    0.046853   -0.000030
  29 C :   -0.091732    0.008184
  30 H :    0.049666    0.016590
  31 H :    0.053251    0.043660
  32 C :   -0.063728    0.833048
  33 H :    0.040633    0.008850
  34 C :   -0.097371    0.008089
  35 H :    0.052458    0.043913
  36 H :    0.048664    0.016825
  37 C :   -0.088732    0.008859
  38 H :    0.039996   -0.000000
  39 H :    0.042065    0.000011
  40 C :   -0.080155    0.000703
  41 H :    0.033712    0.000174
  42 H :    0.033505    0.000340
  43 C :   -0.060155    0.000088
  44 H :    0.045414   -0.000000
  45 H :    0.045396    0.000000
  46 H :    0.031650    0.000000
  47 H :    0.031320   -0.000051

  Mayer bond orders larger than 0.100000
B(  0-C ,  1-C ) :   2.7064 B(  0-C , 44-H ) :   0.9832 B(  1-C ,  3-C ) :   0.9098
B(  2-C ,  6-C ) :   0.9144 B(  2-C , 43-C ) :   2.7040 B(  3-C ,  4-C ) :   1.3689
B(  3-C ,  5-C ) :   0.1135 B(  3-C ,  8-C ) :   1.4161 B(  4-C ,  5-C ) :   1.4384
B(  4-C , 11-C ) :   0.9442 B(  5-C ,  6-C ) :   1.4220 B(  5-C ,  9-H ) :   0.9701
B(  6-C ,  7-C ) :   1.3582 B(  6-C ,  8-C ) :   0.1139 B(  7-C ,  8-C ) :   1.4407
B(  7-C , 23-C ) :   0.9385 B(  8-C , 10-H ) :   0.9705 B( 11-C , 12-H ) :   0.9604
B( 11-C , 13-H ) :   0.9605 B( 11-C , 14-C ) :   1.0198 B( 14-C , 15-H ) :   0.9615
B( 14-C , 16-H ) :   0.9613 B( 14-C , 17-C ) :   0.9857 B( 17-C , 18-H ) :   0.9719
B( 17-C , 19-H ) :   0.9716 B( 17-C , 20-C ) :   0.9542 B( 20-C , 21-H ) :   0.9728
B( 20-C , 22-H ) :   0.9729 B( 20-C , 46-H ) :   0.9678 B( 23-C , 24-H ) :   0.9595
B( 23-C , 25-H ) :   0.9619 B( 23-C , 26-C ) :   1.0145 B( 26-C , 27-H ) :   0.9646
B( 26-C , 28-H ) :   0.9574 B( 26-C , 29-C ) :   0.9729 B( 29-C , 30-H ) :   0.9697
B( 29-C , 31-H ) :   0.9577 B( 29-C , 32-C ) :   0.9728 B( 32-C , 33-H ) :   1.0069
B( 32-C , 34-C ) :   0.9762 B( 34-C , 35-H ) :   0.9574 B( 34-C , 36-H ) :   0.9744
B( 34-C , 37-C ) :   0.9813 B( 37-C , 38-H ) :   0.9768 B( 37-C , 39-H ) :   0.9724
B( 37-C , 40-C ) :   0.9575 B( 40-C , 41-H ) :   0.9713 B( 40-C , 42-H ) :   0.9731
B( 40-C , 47-H ) :   0.9687 B( 43-C , 45-H ) :   0.9831

FINAL SINGLE POINT ENERGY      -815.882285214700

DIPOLE MOMENT
-------------
                                X             Y             Z
Electronic contribution:     -2.22289     -13.91394      -1.65103
Nuclear contribution   :      2.27586      13.93212       1.60986
                        -----------------------------------------
Total Dipole Moment    :      0.05297       0.01819      -0.04118
                        -----------------------------------------
Magnitude (a.u.)       :      0.06951
Magnitude (Debye)      :      0.17669

Rotational constants in cm-1:     0.020647     0.002915     0.002575
Rotational constants in MHz :   618.979948    87.377282    77.189680

CHEMICAL SHIELDING SUMMARY (ppm)  --  Orbital contribution
----------------------------------------------------------

  Nucleus  Element    Isotropic     Anisotropy
  -------  -------  ------------   ------------
      9       H           24.287         13.039
     10       H           24.269         13.036
     12       H           28.992          5.887
     13       H           29.001          5.916
     15       H           30.196          4.720
     16       H           30.201          4.744
     18       H           30.347          6.499
     19       H           30.342          6.506
     21       H           30.957          8.071
     22       H           30.954          8.089
     24       H           29.003          5.961
     25       H           28.964          5.836
     27       H           30.012          5.204
     28       H           29.984          4.844
     30       H           29.575          4.660
     31       H           29.277          5.173
     33       H           27.335          8.715
     35       H           29.390          5.295
     36       H           29.692          3.729
     38       H           30.274          6.560
     39       H           30.222          6.231
     41       H           31.080          8.045
     42       H           31.035          8.169
     44       H           28.506         10.611
     45       H           28.504         10.598
     46       H           30.724         10.467
     47       H           30.794         10.029

                             ****ORCA TERMINATED NORMALLY****
TOTAL RUN TIME: 0 days 1 hours 17 minutes 17 seconds 672 msec
