                         Program Version 5.0.4 -  RELEASE  -
|  1> ! B3LYP EPR-II AUTOAUX
|  2> %pal nprocs 16 end
|  3> *XYZFile 0 2 opt.xyz
|  4> %EPRNMR
|  5>         GTENSOR   TRUE
|  6>         NUCLEI    = ALL H {SHIFT, AISO, ADIP, AORB}
|  7> END
|  8>
|  9>                          ****END OF INPUT****

CARTESIAN COORDINATES (ANGSTROEM)
---------------------------------
  C     -3.990231    0.213841   -0.298689
  C     -2.777202    0.134401   -0.264168
  C      2.881118   -0.106320   -0.120939
  C     -1.347580    0.049789   -0.226693
  C     -0.698663   -1.210432   -0.168978
  C      0.696414   -1.210949   -0.136033
  C      1.451516   -0.021244   -0.158159
  C      0.802554    1.238942   -0.215585
  C     -0.592525    1.239697   -0.248218
  H      1.240484   -2.154117   -0.091566
  H     -1.136490    2.183031   -0.291658
  C     -1.520796   -2.484849   -0.145693
  H     -2.176647   -2.488350   -1.035776
  H     -2.218070   -2.430135    0.710536
  C     -0.747760   -3.804774   -0.083711
  H     -0.066510   -3.882053   -0.951169
  H     -0.105100   -3.822574    0.815836
  C     -1.671277   -5.028796   -0.062159
  H     -2.353766   -4.954482    0.804809
  H     -2.318821   -5.011894   -0.958437
  C     -0.911004   -6.356092   -0.003542
  H     -0.279819   -6.416782    0.899916
  H     -0.247977   -6.477180   -0.877607
  C      1.625960    2.512302   -0.238909
  H      2.288489    2.510214    0.646135
  H      2.316797    2.461154   -1.100696
  C      0.854747    3.833459   -0.287928
  H      0.209453    3.860975   -1.184672
  H      0.180476    3.912331    0.583195
  C      1.786297    5.054577   -0.308234
  H      2.452926    5.030614    0.576943
  H      2.476574    4.960570   -1.179156
  C      1.071033    6.365835   -0.362651
  H      0.095267    6.402624   -0.863681
  C      1.766851    7.657378   -0.078213
  H      2.447636    7.917283   -0.923106
  H      2.441558    7.532993    0.792881
  C      0.820543    8.841876    0.167056
  H      0.163439    8.964772   -0.713802
  H      0.153001    8.598335    1.013255
  C      1.555999   10.154269    0.446799
  H      2.197776   10.071072    1.341050
  H      2.205841   10.437943   -0.399281
  C      4.094180   -0.186871   -0.089942
  H     -5.059895    0.285441   -0.327738
  H      5.163803   -0.259276   -0.061371
  H     -1.600271   -7.215913    0.013460
  H      0.851264   10.984019    0.618926

 Total Charge           Charge          ....    0
 Multiplicity           Mult            ....    2
 Number of Electrons    NEL             ....  153
 Basis Dimension        Dim             ....  546

ORBITAL ENERGIES
----------------
                 SPIN UP ORBITALS
  NO   OCC          E(Eh)            E(eV)
   0   1.0000     -10.223028      -278.1827
   1   1.0000     -10.223016      -278.1824
   2   1.0000     -10.211308      -277.8638
   3   1.0000     -10.211227      -277.8616
   4   1.0000     -10.206147      -277.7234
   5   1.0000     -10.205937      -277.7177
   6   1.0000     -10.199592      -277.5450
   7   1.0000     -10.199551      -277.5439
   8   1.0000     -10.197942      -277.5001
   9   1.0000     -10.197770      -277.4954
  10   1.0000     -10.188529      -277.2440
  11   1.0000     -10.188054      -277.2310
  12   1.0000     -10.186030      -277.1760
  13   1.0000     -10.185197      -277.1533
  14   1.0000     -10.183802      -277.1153
  15   1.0000     -10.182655      -277.0841
  16   1.0000     -10.182368      -277.0763
  17   1.0000     -10.182292      -277.0742
  18   1.0000     -10.180099      -277.0146
  19   1.0000     -10.173113      -276.8245
  20   1.0000     -10.171560      -276.7822
  21   1.0000      -0.874587       -23.7987
  22   1.0000      -0.818353       -22.2685
  23   1.0000      -0.804103       -21.8807
  24   1.0000      -0.794671       -21.6241
  25   1.0000      -0.783618       -21.3233
  26   1.0000      -0.761667       -20.7260
  27   1.0000      -0.753648       -20.5078
  28   1.0000      -0.731277       -19.8991
  29   1.0000      -0.721884       -19.6435
  30   1.0000      -0.705524       -19.1983
  31   1.0000      -0.673635       -18.3306
  32   1.0000      -0.642920       -17.4947
  33   1.0000      -0.637504       -17.3474
  34   1.0000      -0.610990       -16.6259
  35   1.0000      -0.589524       -16.0418
  36   1.0000      -0.578196       -15.7335
  37   1.0000      -0.564178       -15.3521
  38   1.0000      -0.561887       -15.2897
  39   1.0000      -0.543410       -14.7869
  40   1.0000      -0.526233       -14.3195
  41   1.0000      -0.499562       -13.5938
  42   1.0000      -0.485299       -13.2056
  43   1.0000      -0.475903       -12.9500
  44   1.0000      -0.471052       -12.8180
  45   1.0000      -0.469752       -12.7826
  46   1.0000      -0.454652       -12.3717
  47   1.0000      -0.432563       -11.7706
  48   1.0000      -0.428731       -11.6664
  49   1.0000      -0.427501       -11.6329
  50   1.0000      -0.421018       -11.4565
  51   1.0000      -0.415724       -11.3124
  52   1.0000      -0.408817       -11.1245
  53   1.0000      -0.406605       -11.0643
  54   1.0000      -0.388072       -10.5600
  55   1.0000      -0.383833       -10.4446
  56   1.0000      -0.382182       -10.3997
  57   1.0000      -0.370131       -10.0718
  58   1.0000      -0.363469        -9.8905
  59   1.0000      -0.356732        -9.7072
  60   1.0000      -0.356248        -9.6940
  61   1.0000      -0.349895        -9.5211
  62   1.0000      -0.336147        -9.1470
  63   1.0000      -0.335363        -9.1257
  64   1.0000      -0.329305        -8.9608
  65   1.0000      -0.328013        -8.9257
  66   1.0000      -0.326325        -8.8798
  67   1.0000      -0.323823        -8.8117
  68   1.0000      -0.321807        -8.7568
  69   1.0000      -0.319884        -8.7045
  70   1.0000      -0.313693        -8.5360
  71   1.0000      -0.280867        -7.6428
  72   1.0000      -0.277928        -7.5628
  73   1.0000      -0.276710        -7.5297
  74   1.0000      -0.246626        -6.7110
  75   1.0000      -0.220674        -6.0048
  76   1.0000      -0.180480        -4.9111
  77   0.0000      -0.053338        -1.4514
  78   0.0000      -0.005269        -0.1434
  79   0.0000       0.018969         0.5162
  80   0.0000       0.021782         0.5927
  81   0.0000       0.024671         0.6713

                 SPIN DOWN ORBITALS
  NO   OCC          E(Eh)            E(eV)
   0   1.0000     -10.223023      -278.1826
   1   1.0000     -10.223017      -278.1824
   2   1.0000     -10.211316      -277.8640
   3   1.0000     -10.211222      -277.8615
   4   1.0000     -10.206148      -277.7234
   5   1.0000     -10.205936      -277.7176
   6   1.0000     -10.199586      -277.5448
   7   1.0000     -10.199554      -277.5440
   8   1.0000     -10.197941      -277.5001
   9   1.0000     -10.197771      -277.4954
  10   1.0000     -10.188518      -277.2437
  11   1.0000     -10.188054      -277.2310
  12   1.0000     -10.186099      -277.1778
  13   1.0000     -10.183574      -277.1091
  14   1.0000     -10.183250      -277.1003
  15   1.0000     -10.182655      -277.0841
  16   1.0000     -10.182292      -277.0742
  17   1.0000     -10.179862      -277.0081
  18   1.0000     -10.173113      -276.8245
  19   1.0000     -10.172319      -276.8029
  20   1.0000     -10.171554      -276.7820
  21   1.0000      -0.874575       -23.7984
  22   1.0000      -0.817574       -22.2473
  23   1.0000      -0.797630       -21.7046
  24   1.0000      -0.794526       -21.6202
  25   1.0000      -0.781959       -21.2782
  26   1.0000      -0.760581       -20.6965
  27   1.0000      -0.753338       -20.4994
  28   1.0000      -0.727034       -19.7836
  29   1.0000      -0.721791       -19.6409
  30   1.0000      -0.702130       -19.1059
  31   1.0000      -0.672852       -18.3092
  32   1.0000      -0.642508       -17.4835
  33   1.0000      -0.636657       -17.3243
  34   1.0000      -0.608904       -16.5691
  35   1.0000      -0.588153       -16.0045
  36   1.0000      -0.577138       -15.7047
  37   1.0000      -0.563740       -15.3401
  38   1.0000      -0.547216       -14.8905
  39   1.0000      -0.543106       -14.7787
  40   1.0000      -0.525591       -14.3021
  41   1.0000      -0.499209       -13.5842
  42   1.0000      -0.485274       -13.2050
  43   1.0000      -0.475732       -12.9453
  44   1.0000      -0.470118       -12.7926
  45   1.0000      -0.466047       -12.6818
  46   1.0000      -0.452274       -12.3070
  47   1.0000      -0.431370       -11.7382
  48   1.0000      -0.426544       -11.6069
  49   1.0000      -0.426197       -11.5974
  50   1.0000      -0.420684       -11.4474
  51   1.0000      -0.415426       -11.3043
  52   1.0000      -0.405899       -11.0451
  53   1.0000      -0.401877       -10.9356
  54   1.0000      -0.386559       -10.5188
  55   1.0000      -0.381831       -10.3902
  56   1.0000      -0.379305       -10.3214
  57   1.0000      -0.368839       -10.0366
  58   1.0000      -0.362084        -9.8528
  59   1.0000      -0.355844        -9.6830
  60   1.0000      -0.354497        -9.6464
  61   1.0000      -0.348878        -9.4935
  62   1.0000      -0.334806        -9.1105
  63   1.0000      -0.334043        -9.0898
  64   1.0000      -0.327964        -8.9244
  65   1.0000      -0.326714        -8.8903
  66   1.0000      -0.325377        -8.8539
  67   1.0000      -0.323574        -8.8049
  68   1.0000      -0.320613        -8.7243
  69   1.0000      -0.319162        -8.6848
  70   1.0000      -0.310917        -8.4605
  71   1.0000      -0.280858        -7.6425
  72   1.0000      -0.277927        -7.5628
  73   1.0000      -0.276699        -7.5294
  74   1.0000      -0.246564        -6.7093
  75   1.0000      -0.220637        -6.0038
  76   0.0000      -0.053351        -1.4518
  77   0.0000      -0.037908        -1.0315
  78   0.0000      -0.005132        -0.1397
  79   0.0000       0.019099         0.5197
  80   0.0000       0.021997         0.5986

MULLIKEN ATOMIC CHARGES AND SPIN POPULATIONS
--------------------------------------------
   0 C :   -0.543175   -0.000071
   1 C :    0.001604    0.000017
   2 C :    0.002102   -0.000080
   3 C :    0.392404   -0.000152
   4 C :    0.334090    0.000290
   5 C :   -0.419330   -0.000195
   6 C :    0.392367    0.000487
   7 C :    0.336745   -0.001098
   8 C :   -0.421202    0.000711
   9 H :    0.133929    0.000008
  10 H :    0.134345   -0.000019
  11 C :   -0.388383   -0.000019
  12 H :    0.153399    0.000017
  13 H :    0.153460    0.000015
  14 C :   -0.263064    0.000004
  15 H :    0.139216    0.000000
  16 H :    0.139133    0.000000
  17 C :   -0.254786   -0.000000
  18 H :    0.142375    0.000000
  19 H :    0.142208    0.000000
  20 C :   -0.508529   -0.000000
  21 H :    0.157777    0.000000
  22 H :    0.157869    0.000000
  23 C :   -0.394023    0.000887
  24 H :    0.154216    0.000209
  25 H :    0.152791    0.000040
  26 C :   -0.290220    0.010935
  27 H :    0.144469   -0.000572
  28 H :    0.155950   -0.001121
  29 C :   -0.271844   -0.065851
  30 H :    0.145838    0.020144
  31 H :    0.144987    0.056028
  32 C :   -0.128607    1.006674
  33 H :    0.112276   -0.049095
  34 C :   -0.280615   -0.064649
  35 H :    0.145274    0.056781
  36 H :    0.142917    0.020113
  37 C :   -0.269613    0.010687
  38 H :    0.145199   -0.000605
  39 H :    0.155932   -0.000674
  40 C :   -0.507524   -0.000113
  41 H :    0.158285    0.000199
  42 H :    0.156820    0.000181
  43 C :   -0.542157    0.000097
  44 H :    0.182975    0.000003
  45 H :    0.182849   -0.000004
  46 H :    0.143289   -0.000000
  47 H :    0.145983   -0.000211
Sum of atomic charges         :    0.0000000

LOEWDIN ATOMIC CHARGES AND SPIN POPULATIONS
-------------------------------------------
   0 C :   -0.061472   -0.000060
   1 C :   -0.030730    0.000017
   2 C :   -0.030747   -0.000009
   3 C :   -0.069981   -0.000096
   4 C :   -0.042365    0.000241
   5 C :   -0.006758   -0.000101
   6 C :   -0.070146    0.000267
   7 C :   -0.042538   -0.000182
   8 C :   -0.006463    0.000315
   9 H :    0.063474   -0.000001
  10 H :    0.063637    0.000010
  11 C :   -0.047270    0.000003
  12 H :    0.062073    0.000012
  13 H :    0.062056    0.000011
  14 C :   -0.084558    0.000001
  15 H :    0.046972    0.000000
  16 H :    0.046932    0.000000
  17 C :   -0.095809    0.000000
  18 H :    0.043690    0.000000
  19 H :    0.043682    0.000000
  20 C :   -0.084940   -0.000000
  21 H :    0.036433    0.000000
  22 H :    0.036404    0.000000
  23 C :   -0.047393    0.001010
  24 H :    0.062184    0.000167
  25 H :    0.061904    0.000400
  26 C :   -0.077947    0.008356
  27 H :    0.047035   -0.000017
  28 H :    0.049357   -0.000067
  29 C :   -0.096845    0.008472
  30 H :    0.052221    0.017814
  31 H :    0.055912    0.045792
  32 C :   -0.067705    0.827319
  33 H :    0.043875    0.008070
  34 C :   -0.102630    0.008439
  35 H :    0.055246    0.046137
  36 H :    0.051266    0.017545
  37 C :   -0.094739    0.008849
  38 H :    0.042682   -0.000024
  39 H :    0.044843   -0.000025
  40 C :   -0.086306    0.000754
  41 H :    0.036063    0.000187
  42 H :    0.035855    0.000362
  43 C :   -0.061846    0.000084
  44 H :    0.048973   -0.000000
  45 H :    0.048957    0.000000
  46 H :    0.033890    0.000000
  47 H :    0.033579   -0.000053

  Mayer bond orders larger than 0.100000
B(  0-C ,  1-C ) :   2.7005 B(  0-C , 44-H ) :   0.9842 B(  1-C ,  3-C ) :   0.9131
B(  2-C ,  6-C ) :   0.9179 B(  2-C , 43-C ) :   2.6981 B(  3-C ,  4-C ) :   1.3711
B(  3-C ,  5-C ) :   0.1166 B(  3-C ,  8-C ) :   1.4179 B(  4-C ,  5-C ) :   1.4377
B(  4-C , 11-C ) :   0.9445 B(  5-C ,  6-C ) :   1.4238 B(  5-C ,  9-H ) :   0.9714
B(  6-C ,  7-C ) :   1.3600 B(  6-C ,  8-C ) :   0.1171 B(  7-C ,  8-C ) :   1.4398
B(  7-C , 23-C ) :   0.9388 B(  8-C , 10-H ) :   0.9718 B( 11-C , 12-H ) :   0.9602
B( 11-C , 13-H ) :   0.9604 B( 11-C , 14-C ) :   1.0212 B( 14-C , 15-H ) :   0.9606
B( 14-C , 16-H ) :   0.9605 B( 14-C , 17-C ) :   0.9876 B( 17-C , 18-H ) :   0.9712
B( 17-C , 19-H ) :   0.9711 B( 17-C , 20-C ) :   0.9539 B( 20-C , 21-H ) :   0.9728
B( 20-C , 22-H ) :   0.9729 B( 20-C , 46-H ) :   0.9676 B( 23-C , 24-H ) :   0.9596
B( 23-C , 25-H ) :   0.9617 B( 23-C , 26-C ) :   1.0159 B( 26-C , 27-H ) :   0.9634
B( 26-C , 28-H ) :   0.9569 B( 26-C , 29-C ) :   0.9743 B( 29-C , 30-H ) :   0.9682
B( 29-C , 31-H ) :   0.9566 B( 29-C , 32-C ) :   0.9766 B( 32-C , 33-H ) :   1.0075
B( 32-C , 34-C ) :   0.9789 B( 34-C , 35-H ) :   0.9563 B( 34-C , 36-H ) :   0.9735
B( 34-C , 37-C ) :   0.9825 B( 37-C , 38-H ) :   0.9764 B( 37-C , 39-H ) :   0.9721
B( 37-C , 40-C ) :   0.9573 B( 40-C , 41-H ) :   0.9712 B( 40-C , 42-H ) :   0.9730
B( 40-C , 47-H ) :   0.9687 B( 43-C , 45-H ) :   0.9841

FINAL SINGLE POINT ENERGY      -815.881072181312

DIPOLE MOMENT
-------------
                                X             Y             Z
Electronic contribution:     -2.23458     -13.89824      -1.37414
Nuclear contribution   :      2.28618      13.91542       1.32608
                        -----------------------------------------
Total Dipole Moment    :      0.05160       0.01718      -0.04805
                        -----------------------------------------
Magnitude (a.u.)       :      0.07257
Magnitude (Debye)      :      0.18447

Rotational constants in cm-1:     0.020790     0.002924     0.002583
Rotational constants in MHz :   623.258386    87.651943    77.426920

CHEMICAL SHIELDING SUMMARY (ppm)  --  Orbital contribution
----------------------------------------------------------

  Nucleus  Element    Isotropic     Anisotropy
  -------  -------  ------------   ------------
      9       H           24.245         12.954
     10       H           24.227         12.960
     12       H           28.803          5.870
     13       H           28.808          5.859
     15       H           30.013          4.693
     16       H           30.010          4.721
     18       H           30.130          6.450
     19       H           30.131          6.450
     21       H           30.712          8.018
     22       H           30.711          8.025
     24       H           28.805          5.920
     25       H           28.780          5.805
     27       H           29.823          5.169
     28       H           29.791          4.832
     30       H           29.362          4.562
     31       H           29.056          5.137
     33       H           27.261          8.723
     35       H           29.163          5.297
     36       H           29.477          3.658
     38       H           30.055          6.514
     39       H           29.997          6.179
     41       H           30.830          8.003
     42       H           30.787          8.090
     44       H           28.367         10.569
     45       H           28.365         10.556
     46       H           30.486         10.337
     47       H           30.552          9.897

                             ****ORCA TERMINATED NORMALLY****
TOTAL RUN TIME: 0 days 1 hours 18 minutes 14 seconds 989 msec
