                         Program Version 5.0.4 -  RELEASE  -
|  1> ! B3LYP EPR-II AUTOAUX
|  2> %pal nprocs 16 end
|  3> *XYZFile 0 2 opt.xyz
|  4> %EPRNMR
|  5>         GTENSOR   TRUE
|  6>         NUCLEI    = ALL H {SHIFT, AISO, ADIP, AORB}
|  7>         ORI       CenterOfElCharge
|  8> END
|  9>
| 10>                          ****END OF INPUT****

CARTESIAN COORDINATES (ANGSTROEM)
---------------------------------
  C     -3.990231    0.213841   -0.298689
  C     -2.777202    0.134401   -0.264168
  C      2.881118   -0.106320   -0.120939
  C     -1.347580    0.049789   -0.226693
  C     -0.698663   -1.210432   -0.168978
  C      0.696414   -1.210949   -0.136033
  C      1.451516   -0.021244   -0.158159
  C      0.802554    1.238942   -0.215585
  C     -0.592525    1.239697   -0.248218
  H      1.240484   -2.154117   -0.091566
  H     -1.136490    2.183031   -0.291658
  C     -1.520796   -2.484849   -0.145693
  H     -2.176647   -2.488350   -1.035776
  H     -2.218070   -2.430135    0.710536
  C     -0.747760   -3.804774   -0.083711
  H     -0.066510   -3.882053   -0.951169
  H     -0.105100   -3.822574    0.815836
  C     -1.671277   -5.028796   -0.062159
  H     -2.353766   -4.954482    0.804809
  H     -2.318821   -5.011894   -0.958437
  C     -0.911004   -6.356092   -0.003542
  H     -0.279819   -6.416782    0.899916
  H     -0.247977   -6.477180   -0.877607
  C      1.625960    2.512302   -0.238909
  H      2.288489    2.510214    0.646135
  H      2.316797    2.461154   -1.100696
  C      0.854747    3.833459   -0.287928
  H      0.209453    3.860975   -1.184672
  H      0.180476    3.912331    0.583195
  C      1.786297    5.054577   -0.308234
  H      2.452926    5.030614    0.576943
  H      2.476574    4.960570   -1.179156
  C      1.071033    6.365835   -0.362651
  H      0.095267    6.402624   -0.863681
  C      1.766851    7.657378   -0.078213
  H      2.447636    7.917283   -0.923106
  H      2.441558    7.532993    0.792881
  C      0.820543    8.841876    0.167056
  H      0.163439    8.964772   -0.713802
  H      0.153001    8.598335    1.013255
  C      1.555999   10.154269    0.446799
  H      2.197776   10.071072    1.341050
  H      2.205841   10.437943   -0.399281
  C      4.094180   -0.186871   -0.089942
  H     -5.059895    0.285441   -0.327738
  H      5.163803   -0.259276   -0.061371
  H     -1.600271   -7.215913    0.013460
  H      0.851264   10.984019    0.618926

 Total Charge           Charge          ....    0
 Multiplicity           Mult            ....    2
 Number of Electrons    NEL             ....  153
 Basis Dimension        Dim             ....  546

ORBITAL ENERGIES
----------------
                 SPIN UP ORBITALS
  NO   OCC          E(Eh)            E(eV)
   0   1.0000     -10.223028      -278.1827
   1   1.0000     -10.223003      -278.1820
   2   1.0000     -10.211355      -277.8651
   3   1.0000     -10.211235      -277.8618
   4   1.0000     -10.206132      -277.7230
   5   1.0000     -10.205926      -277.7174
   6   1.0000     -10.199634      -277.5461
   7   1.0000     -10.199571      -277.5444
   8   1.0000     -10.197925      -277.4996
   9   1.0000     -10.197735      -277.4945
  10   1.0000     -10.188541      -277.2443
  11   1.0000     -10.188049      -277.2309
  12   1.0000     -10.186030      -277.1760
  13   1.0000     -10.185193      -277.1532
  14   1.0000     -10.183810      -277.1156
  15   1.0000     -10.182655      -277.0841
  16   1.0000     -10.182367      -277.0763
  17   1.0000     -10.182287      -277.0741
  18   1.0000     -10.180102      -277.0146
  19   1.0000     -10.173114      -276.8245
  20   1.0000     -10.171564      -276.7823
  21   1.0000      -0.874598       -23.7990
  22   1.0000      -0.818357       -22.2686
  23   1.0000      -0.804103       -21.8808
  24   1.0000      -0.794670       -21.6241
  25   1.0000      -0.783621       -21.3234
  26   1.0000      -0.761672       -20.7261
  27   1.0000      -0.753640       -20.5076
  28   1.0000      -0.731279       -19.8991
  29   1.0000      -0.721878       -19.6433
  30   1.0000      -0.705527       -19.1984
  31   1.0000      -0.673639       -18.3306
  32   1.0000      -0.642922       -17.4948
  33   1.0000      -0.637506       -17.3474
  34   1.0000      -0.610993       -16.6260
  35   1.0000      -0.589526       -16.0418
  36   1.0000      -0.578196       -15.7335
  37   1.0000      -0.564181       -15.3521
  38   1.0000      -0.561888       -15.2898
  39   1.0000      -0.543406       -14.7868
  40   1.0000      -0.526232       -14.3195
  41   1.0000      -0.499562       -13.5938
  42   1.0000      -0.485296       -13.2056
  43   1.0000      -0.475909       -12.9501
  44   1.0000      -0.471054       -12.8180
  45   1.0000      -0.469751       -12.7826
  46   1.0000      -0.454654       -12.3718
  47   1.0000      -0.432569       -11.7708
  48   1.0000      -0.428735       -11.6665
  49   1.0000      -0.427506       -11.6330
  50   1.0000      -0.421017       -11.4565
  51   1.0000      -0.415725       -11.3125
  52   1.0000      -0.408819       -11.1245
  53   1.0000      -0.406607       -11.0643
  54   1.0000      -0.388076       -10.5601
  55   1.0000      -0.383836       -10.4447
  56   1.0000      -0.382186       -10.3998
  57   1.0000      -0.370132       -10.0718
  58   1.0000      -0.363471        -9.8906
  59   1.0000      -0.356736        -9.7073
  60   1.0000      -0.356252        -9.6941
  61   1.0000      -0.349896        -9.5211
  62   1.0000      -0.336150        -9.1471
  63   1.0000      -0.335364        -9.1257
  64   1.0000      -0.329305        -8.9609
  65   1.0000      -0.328012        -8.9257
  66   1.0000      -0.326325        -8.8797
  67   1.0000      -0.323823        -8.8117
  68   1.0000      -0.321808        -8.7568
  69   1.0000      -0.319882        -8.7044
  70   1.0000      -0.313696        -8.5361
  71   1.0000      -0.280862        -7.6426
  72   1.0000      -0.277919        -7.5626
  73   1.0000      -0.276702        -7.5294
  74   1.0000      -0.246638        -6.7114
  75   1.0000      -0.220672        -6.0048
  76   1.0000      -0.180482        -4.9112
  77   0.0000      -0.053339        -1.4514
  78   0.0000      -0.005281        -0.1437
  79   0.0000       0.018971         0.5162
  80   0.0000       0.021783         0.5927
  81   0.0000       0.024673         0.6714

                 SPIN DOWN ORBITALS
  NO   OCC          E(Eh)            E(eV)
   0   1.0000     -10.223023      -278.1826
   1   1.0000     -10.223005      -278.1821
   2   1.0000     -10.211364      -277.8653
   3   1.0000     -10.211230      -277.8617
   4   1.0000     -10.206133      -277.7230
   5   1.0000     -10.205926      -277.7174
   6   1.0000     -10.199627      -277.5460
   7   1.0000     -10.199573      -277.5445
   8   1.0000     -10.197924      -277.4996
   9   1.0000     -10.197736      -277.4945
  10   1.0000     -10.188530      -277.2440
  11   1.0000     -10.188049      -277.2309
  12   1.0000     -10.186097      -277.1778
  13   1.0000     -10.183582      -277.1094
  14   1.0000     -10.183251      -277.1003
  15   1.0000     -10.182655      -277.0841
  16   1.0000     -10.182287      -277.0741
  17   1.0000     -10.179863      -277.0082
  18   1.0000     -10.173114      -276.8245
  19   1.0000     -10.172316      -276.8028
  20   1.0000     -10.171558      -276.7822
  21   1.0000      -0.874585       -23.7987
  22   1.0000      -0.817577       -22.2474
  23   1.0000      -0.797631       -21.7046
  24   1.0000      -0.794525       -21.6201
  25   1.0000      -0.781962       -21.2783
  26   1.0000      -0.760586       -20.6966
  27   1.0000      -0.753330       -20.4992
  28   1.0000      -0.727036       -19.7837
  29   1.0000      -0.721785       -19.6408
  30   1.0000      -0.702133       -19.1060
  31   1.0000      -0.672856       -18.3093
  32   1.0000      -0.642510       -17.4836
  33   1.0000      -0.636659       -17.3244
  34   1.0000      -0.608907       -16.5692
  35   1.0000      -0.588155       -16.0045
  36   1.0000      -0.577139       -15.7047
  37   1.0000      -0.563744       -15.3402
  38   1.0000      -0.547215       -14.8905
  39   1.0000      -0.543103       -14.7786
  40   1.0000      -0.525590       -14.3020
  41   1.0000      -0.499210       -13.5842
  42   1.0000      -0.485271       -13.2049
  43   1.0000      -0.475738       -12.9455
  44   1.0000      -0.470117       -12.7925
  45   1.0000      -0.466051       -12.6819
  46   1.0000      -0.452276       -12.3071
  47   1.0000      -0.431377       -11.7384
  48   1.0000      -0.426547       -11.6069
  49   1.0000      -0.426202       -11.5975
  50   1.0000      -0.420683       -11.4474
  51   1.0000      -0.415427       -11.3043
  52   1.0000      -0.405901       -11.0451
  53   1.0000      -0.401881       -10.9357
  54   1.0000      -0.386564       -10.5189
  55   1.0000      -0.381835       -10.3903
  56   1.0000      -0.379308       -10.3215
  57   1.0000      -0.368841       -10.0367
  58   1.0000      -0.362085        -9.8528
  59   1.0000      -0.355848        -9.6831
  60   1.0000      -0.354501        -9.6465
  61   1.0000      -0.348878        -9.4935
  62   1.0000      -0.334809        -9.1106
  63   1.0000      -0.334043        -9.0898
  64   1.0000      -0.327963        -8.9243
  65   1.0000      -0.326714        -8.8903
  66   1.0000      -0.325377        -8.8540
  67   1.0000      -0.323574        -8.8049
  68   1.0000      -0.320612        -8.7243
  69   1.0000      -0.319162        -8.6848
  70   1.0000      -0.310919        -8.4605
  71   1.0000      -0.280853        -7.6424
  72   1.0000      -0.277918        -7.5625
  73   1.0000      -0.276691        -7.5291
  74   1.0000      -0.246577        -6.7097
  75   1.0000      -0.220635        -6.0038
  76   0.0000      -0.053352        -1.4518
  77   0.0000      -0.037905        -1.0314
  78   0.0000      -0.005144        -0.1400
  79   0.0000       0.019101         0.5198
  80   0.0000       0.021998         0.5986

MULLIKEN ATOMIC CHARGES AND SPIN POPULATIONS
--------------------------------------------
   0 C :   -0.543131   -0.000073
   1 C :    0.001575    0.000019
   2 C :    0.002103   -0.000082
   3 C :    0.392425   -0.000155
   4 C :    0.334091    0.000291
   5 C :   -0.419353   -0.000196
   6 C :    0.392386    0.000489
   7 C :    0.336682   -0.001097
   8 C :   -0.421232    0.000712
   9 H :    0.133937    0.000008
  10 H :    0.134356   -0.000019
  11 C :   -0.388369   -0.000019
  12 H :    0.153401    0.000017
  13 H :    0.153461    0.000015
  14 C :   -0.263060    0.000004
  15 H :    0.139215    0.000000
  16 H :    0.139132    0.000000
  17 C :   -0.254785   -0.000000
  18 H :    0.142374    0.000000
  19 H :    0.142207    0.000000
  20 C :   -0.508532   -0.000000
  21 H :    0.157778    0.000000
  22 H :    0.157869    0.000000
  23 C :   -0.394016    0.000881
  24 H :    0.154222    0.000210
  25 H :    0.152797    0.000040
  26 C :   -0.290229    0.010946
  27 H :    0.144470   -0.000574
  28 H :    0.155951   -0.001123
  29 C :   -0.271839   -0.065879
  30 H :    0.145837    0.020152
  31 H :    0.144986    0.056034
  32 C :   -0.128603    1.006715
  33 H :    0.112274   -0.049112
  34 C :   -0.280614   -0.064680
  35 H :    0.145274    0.056787
  36 H :    0.142917    0.020120
  37 C :   -0.269615    0.010698
  38 H :    0.145200   -0.000607
  39 H :    0.155932   -0.000676
  40 C :   -0.507527   -0.000114
  41 H :    0.158287    0.000199
  42 H :    0.156822    0.000181
  43 C :   -0.542136    0.000098
  44 H :    0.182965    0.000003
  45 H :    0.182842   -0.000004
  46 H :    0.143289   -0.000000
  47 H :    0.145984   -0.000211
Sum of atomic charges         :   -0.0000000

LOEWDIN ATOMIC CHARGES AND SPIN POPULATIONS
-------------------------------------------
   0 C :   -0.061446   -0.000061
   1 C :   -0.030738    0.000018
   2 C :   -0.030736   -0.000009
   3 C :   -0.069959   -0.000097
   4 C :   -0.042368    0.000242
   5 C :   -0.006770   -0.000102
   6 C :   -0.070135    0.000268
   7 C :   -0.042578   -0.000183
   8 C :   -0.006493    0.000317
   9 H :    0.063477   -0.000001
  10 H :    0.063642    0.000010
  11 C :   -0.047266    0.000003
  12 H :    0.062074    0.000012
  13 H :    0.062057    0.000011
  14 C :   -0.084560    0.000001
  15 H :    0.046972    0.000000
  16 H :    0.046932    0.000000
  17 C :   -0.095806    0.000000
  18 H :    0.043690    0.000000
  19 H :    0.043681    0.000000
  20 C :   -0.084942   -0.000000
  21 H :    0.036433    0.000000
  22 H :    0.036404    0.000000
  23 C :   -0.047393    0.001009
  24 H :    0.062187    0.000167
  25 H :    0.061907    0.000400
  26 C :   -0.077949    0.008361
  27 H :    0.047036   -0.000018
  28 H :    0.049357   -0.000068
  29 C :   -0.096841    0.008457
  30 H :    0.052221    0.017817
  31 H :    0.055912    0.045794
  32 C :   -0.067704    0.827341
  33 H :    0.043875    0.008062
  34 C :   -0.102630    0.008424
  35 H :    0.055246    0.046139
  36 H :    0.051266    0.017549
  37 C :   -0.094740    0.008855
  38 H :    0.042682   -0.000025
  39 H :    0.044843   -0.000026
  40 C :   -0.086308    0.000753
  41 H :    0.036063    0.000187
  42 H :    0.035856    0.000362
  43 C :   -0.061840    0.000085
  44 H :    0.048968   -0.000000
  45 H :    0.048954    0.000000
  46 H :    0.033890    0.000000
  47 H :    0.033579   -0.000053

  Mayer bond orders larger than 0.100000
B(  0-C ,  1-C ) :   2.7005 B(  0-C , 44-H ) :   0.9842 B(  1-C ,  3-C ) :   0.9131
B(  2-C ,  6-C ) :   0.9179 B(  2-C , 43-C ) :   2.6980 B(  3-C ,  4-C ) :   1.3711
B(  3-C ,  5-C ) :   0.1166 B(  3-C ,  8-C ) :   1.4179 B(  4-C ,  5-C ) :   1.4377
B(  4-C , 11-C ) :   0.9445 B(  5-C ,  6-C ) :   1.4238 B(  5-C ,  9-H ) :   0.9714
B(  6-C ,  7-C ) :   1.3600 B(  6-C ,  8-C ) :   0.1171 B(  7-C ,  8-C ) :   1.4398
B(  7-C , 23-C ) :   0.9388 B(  8-C , 10-H ) :   0.9718 B( 11-C , 12-H ) :   0.9602
B( 11-C , 13-H ) :   0.9604 B( 11-C , 14-C ) :   1.0212 B( 14-C , 15-H ) :   0.9606
B( 14-C , 16-H ) :   0.9605 B( 14-C , 17-C ) :   0.9876 B( 17-C , 18-H ) :   0.9712
B( 17-C , 19-H ) :   0.9711 B( 17-C , 20-C ) :   0.9539 B( 20-C , 21-H ) :   0.9728
B( 20-C , 22-H ) :   0.9729 B( 20-C , 46-H ) :   0.9676 B( 23-C , 24-H ) :   0.9595
B( 23-C , 25-H ) :   0.9617 B( 23-C , 26-C ) :   1.0159 B( 26-C , 27-H ) :   0.9634
B( 26-C , 28-H ) :   0.9569 B( 26-C , 29-C ) :   0.9743 B( 29-C , 30-H ) :   0.9682
B( 29-C , 31-H ) :   0.9566 B( 29-C , 32-C ) :   0.9766 B( 32-C , 33-H ) :   1.0075
B( 32-C , 34-C ) :   0.9789 B( 34-C , 35-H ) :   0.9563 B( 34-C , 36-H ) :   0.9735
B( 34-C , 37-C ) :   0.9825 B( 37-C , 38-H ) :   0.9764 B( 37-C , 39-H ) :   0.9721
B( 37-C , 40-C ) :   0.9573 B( 40-C , 41-H ) :   0.9712 B( 40-C , 42-H ) :   0.9730
B( 40-C , 47-H ) :   0.9687 B( 43-C , 45-H ) :   0.9841

FINAL SINGLE POINT ENERGY      -815.881072274989

DIPOLE MOMENT
-------------
                                X             Y             Z
Electronic contribution:     -2.23467     -13.89832      -1.37414
Nuclear contribution   :      2.28618      13.91542       1.32608
                        -----------------------------------------
Total Dipole Moment    :      0.05151       0.01710      -0.04806
                        -----------------------------------------
Magnitude (a.u.)       :      0.07249
Magnitude (Debye)      :      0.18426

Rotational constants in cm-1:     0.020790     0.002924     0.002583
Rotational constants in MHz :   623.258386    87.651943    77.426920

CHEMICAL SHIELDING SUMMARY (ppm)  --  Orbital contribution
----------------------------------------------------------

  Nucleus  Element    Isotropic     Anisotropy
  -------  -------  ------------   ------------
      9       H           26.811          9.797
     10       H           90.659         27.894
     12       H           39.236         28.753
     13       H           42.974         27.739
     15       H           60.894         14.482
     16       H           64.618         13.710
     18       H           12.997         20.993
     19       H            9.602         21.988
     21       H           13.437         14.385
     22       H           10.123         15.077
     24       H           74.303         42.969
     25       H           70.213         41.462
     27       H           91.327         15.784
     28       H           95.658          7.307
     30       H           58.873         18.702
     31       H           54.003         13.252
     33       H           74.490          5.890
     35       H            2.499         24.705
     36       H           41.420         10.707
     38       H           28.045         12.677
     39       H           67.041          4.981
     41       H           -4.901         14.570
     42       H          -39.442         24.042
     44       H          -49.751          9.279
     45       H          -43.669          3.407
     46       H          -93.671         11.605
     47       H          -84.352         29.944

                             ****ORCA TERMINATED NORMALLY****
TOTAL RUN TIME: 0 days 1 hours 17 minutes 16 seconds 583 msec
