                         Program Version 5.0.4 -  RELEASE  -
|  1> ! B3LYP cc-pVDZ OPT
|  2> %pal nprocs 16 end
|  3> *XYZFile 0 2 model.xyz
|  4>
|  5>                          ****END OF INPUT****
 Total Charge           Charge          ....    0
 Multiplicity           Mult            ....    2
 Number of Electrons    NEL             ....  153
FINAL SINGLE POINT ENERGY      -815.792183689652
FINAL SINGLE POINT ENERGY      -815.797814537928
FINAL SINGLE POINT ENERGY      -815.800835138412
FINAL SINGLE POINT ENERGY      -815.802198018863
FINAL SINGLE POINT ENERGY      -815.802735965383
FINAL SINGLE POINT ENERGY      -815.802871661812
FINAL SINGLE POINT ENERGY      -815.802888853842
FINAL SINGLE POINT ENERGY      -815.802897361658
FINAL SINGLE POINT ENERGY      -815.802904759990
FINAL SINGLE POINT ENERGY      -815.802910315308
FINAL SINGLE POINT ENERGY      -815.802914180775
                    ***********************HURRAY********************

CARTESIAN COORDINATES (ANGSTROEM)
---------------------------------
  C     -3.990231    0.213841   -0.298689
  C     -2.777202    0.134401   -0.264168
  C      2.881118   -0.106320   -0.120939
  C     -1.347580    0.049789   -0.226693
  C     -0.698663   -1.210432   -0.168978
  C      0.696414   -1.210949   -0.136033
  C      1.451516   -0.021244   -0.158159
  C      0.802554    1.238942   -0.215585
  C     -0.592525    1.239697   -0.248218
  H      1.240484   -2.154117   -0.091566
  H     -1.136490    2.183031   -0.291658
  C     -1.520796   -2.484849   -0.145693
  H     -2.176647   -2.488350   -1.035776
  H     -2.218070   -2.430135    0.710536
  C     -0.747760   -3.804774   -0.083711
  H     -0.066510   -3.882053   -0.951169
  H     -0.105100   -3.822574    0.815836
  C     -1.671277   -5.028796   -0.062159
  H     -2.353766   -4.954482    0.804809
  H     -2.318821   -5.011894   -0.958437
  C     -0.911004   -6.356092   -0.003542
  H     -0.279819   -6.416782    0.899916
  H     -0.247977   -6.477180   -0.877607
  C      1.625960    2.512302   -0.238909
  H      2.288489    2.510214    0.646135
  H      2.316797    2.461154   -1.100696
  C      0.854747    3.833459   -0.287928
  H      0.209453    3.860975   -1.184672
  H      0.180476    3.912331    0.583195
  C      1.786297    5.054577   -0.308234
  H      2.452926    5.030614    0.576943
  H      2.476574    4.960570   -1.179156
  C      1.071033    6.365835   -0.362651
  H      0.095267    6.402624   -0.863681
  C      1.766851    7.657378   -0.078213
  H      2.447636    7.917283   -0.923106
  H      2.441558    7.532993    0.792881
  C      0.820543    8.841876    0.167056
  H      0.163439    8.964772   -0.713802
  H      0.153001    8.598335    1.013255
  C      1.555999   10.154269    0.446799
  H      2.197776   10.071072    1.341050
  H      2.205841   10.437943   -0.399281
  C      4.094180   -0.186871   -0.089942
  H     -5.059895    0.285441   -0.327738
  H      5.163803   -0.259276   -0.061371
  H     -1.600271   -7.215913    0.013460
  H      0.851264   10.984019    0.618926

 Multiplicity           Mult            ....    2
 Number of Electrons    NEL             ....  153
 Basis Dimension        Dim             ....  429

ORBITAL ENERGIES
----------------
                 SPIN UP ORBITALS
  NO   OCC          E(Eh)            E(eV)
   0   1.0000     -10.212399      -277.8935
   1   1.0000     -10.212363      -277.8925
   2   1.0000     -10.201660      -277.6013
   3   1.0000     -10.201535      -277.5979
   4   1.0000     -10.192182      -277.3434
   5   1.0000     -10.192118      -277.3416
   6   1.0000     -10.191804      -277.3331
   7   1.0000     -10.191639      -277.3286
   8   1.0000     -10.187260      -277.2094
   9   1.0000     -10.186941      -277.2008
  10   1.0000     -10.186791      -277.1967
  11   1.0000     -10.186750      -277.1956
  12   1.0000     -10.184194      -277.1260
  13   1.0000     -10.183161      -277.0979
  14   1.0000     -10.181985      -277.0659
  15   1.0000     -10.181815      -277.0613
  16   1.0000     -10.181567      -277.0545
  17   1.0000     -10.181348      -277.0486
  18   1.0000     -10.179592      -277.0008
  19   1.0000     -10.175491      -276.8892
  20   1.0000     -10.174100      -276.8513
  21   1.0000      -0.874600       -23.7991
  22   1.0000      -0.819282       -22.2938
  23   1.0000      -0.805850       -21.9283
  24   1.0000      -0.795098       -21.6357
  25   1.0000      -0.785320       -21.3696
  26   1.0000      -0.763112       -20.7653
  27   1.0000      -0.751759       -20.4564
  28   1.0000      -0.732844       -19.9417
  29   1.0000      -0.720201       -19.5977
  30   1.0000      -0.706965       -19.2375
  31   1.0000      -0.675114       -18.3708
  32   1.0000      -0.643037       -17.4979
  33   1.0000      -0.637552       -17.3487
  34   1.0000      -0.611974       -16.6527
  35   1.0000      -0.590119       -16.0579
  36   1.0000      -0.579217       -15.7613
  37   1.0000      -0.564570       -15.3627
  38   1.0000      -0.562740       -15.3129
  39   1.0000      -0.541601       -14.7377
  40   1.0000      -0.524765       -14.2796
  41   1.0000      -0.498662       -13.5693
  42   1.0000      -0.484112       -13.1734
  43   1.0000      -0.476189       -12.9578
  44   1.0000      -0.471443       -12.8286
  45   1.0000      -0.470021       -12.7899
  46   1.0000      -0.455187       -12.3863
  47   1.0000      -0.433039       -11.7836
  48   1.0000      -0.430164       -11.7053
  49   1.0000      -0.427550       -11.6342
  50   1.0000      -0.421038       -11.4570
  51   1.0000      -0.416322       -11.3287
  52   1.0000      -0.409322       -11.1382
  53   1.0000      -0.407426       -11.0866
  54   1.0000      -0.388674       -10.5764
  55   1.0000      -0.384019       -10.4497
  56   1.0000      -0.382974       -10.4212
  57   1.0000      -0.370058       -10.0698
  58   1.0000      -0.364155        -9.9092
  59   1.0000      -0.357620        -9.7313
  60   1.0000      -0.356585        -9.7032
  61   1.0000      -0.349767        -9.5176
  62   1.0000      -0.336885        -9.1671
  63   1.0000      -0.335404        -9.1268
  64   1.0000      -0.329905        -8.9772
  65   1.0000      -0.328524        -8.9396
  66   1.0000      -0.326268        -8.8782
  67   1.0000      -0.325046        -8.8450
  68   1.0000      -0.322527        -8.7764
  69   1.0000      -0.319808        -8.7024
  70   1.0000      -0.315319        -8.5803
  71   1.0000      -0.279075        -7.5940
  72   1.0000      -0.275797        -7.5048
  73   1.0000      -0.274701        -7.4750
  74   1.0000      -0.246080        -6.6962
  75   1.0000      -0.219033        -5.9602
  76   1.0000      -0.181636        -4.9426
  77   0.0000      -0.050465        -1.3732
  78   0.0000      -0.002728        -0.0742
  79   0.0000       0.041099         1.1184
  80   0.0000       0.048108         1.3091
  81   0.0000       0.050471         1.3734

                 SPIN DOWN ORBITALS
  NO   OCC          E(Eh)            E(eV)
   0   1.0000     -10.212393      -277.8934
   1   1.0000     -10.212366      -277.8926
   2   1.0000     -10.201669      -277.6015
   3   1.0000     -10.201529      -277.5977
   4   1.0000     -10.192175      -277.3432
   5   1.0000     -10.192121      -277.3417
   6   1.0000     -10.191806      -277.3331
   7   1.0000     -10.191638      -277.3286
   8   1.0000     -10.187249      -277.2091
   9   1.0000     -10.186939      -277.2007
  10   1.0000     -10.186792      -277.1967
  11   1.0000     -10.186751      -277.1956
  12   1.0000     -10.185097      -277.1506
  13   1.0000     -10.182931      -277.0916
  14   1.0000     -10.182275      -277.0738
  15   1.0000     -10.181815      -277.0613
  16   1.0000     -10.181566      -277.0545
  17   1.0000     -10.179351      -276.9942
  18   1.0000     -10.175491      -276.8892
  19   1.0000     -10.174094      -276.8512
  20   1.0000     -10.168123      -276.6887
  21   1.0000      -0.874586       -23.7987
  22   1.0000      -0.818298       -22.2670
  23   1.0000      -0.799187       -21.7470
  24   1.0000      -0.795096       -21.6357
  25   1.0000      -0.783855       -21.3298
  26   1.0000      -0.761929       -20.7331
  27   1.0000      -0.751410       -20.4469
  28   1.0000      -0.728546       -19.8247
  29   1.0000      -0.720068       -19.5941
  30   1.0000      -0.703638       -19.1470
  31   1.0000      -0.674373       -18.3506
  32   1.0000      -0.642383       -17.4801
  33   1.0000      -0.636912       -17.3312
  34   1.0000      -0.609766       -16.5926
  35   1.0000      -0.588775       -16.0214
  36   1.0000      -0.578227       -15.7344
  37   1.0000      -0.564070       -15.3491
  38   1.0000      -0.547946       -14.9104
  39   1.0000      -0.541424       -14.7329
  40   1.0000      -0.524143       -14.2627
  41   1.0000      -0.498341       -13.5605
  42   1.0000      -0.484084       -13.1726
  43   1.0000      -0.476016       -12.9530
  44   1.0000      -0.470336       -12.7985
  45   1.0000      -0.466361       -12.6903
  46   1.0000      -0.452929       -12.3248
  47   1.0000      -0.431365       -11.7380
  48   1.0000      -0.427802       -11.6411
  49   1.0000      -0.426809       -11.6141
  50   1.0000      -0.420686       -11.4474
  51   1.0000      -0.416022       -11.3205
  52   1.0000      -0.406828       -11.0703
  53   1.0000      -0.402144       -10.9429
  54   1.0000      -0.387200       -10.5362
  55   1.0000      -0.382413       -10.4060
  56   1.0000      -0.379743       -10.3333
  57   1.0000      -0.368843       -10.0367
  58   1.0000      -0.362740        -9.8707
  59   1.0000      -0.356743        -9.7075
  60   1.0000      -0.354881        -9.6568
  61   1.0000      -0.348725        -9.4893
  62   1.0000      -0.335640        -9.1332
  63   1.0000      -0.333919        -9.0864
  64   1.0000      -0.328453        -8.9376
  65   1.0000      -0.327209        -8.9038
  66   1.0000      -0.325572        -8.8593
  67   1.0000      -0.324753        -8.8370
  68   1.0000      -0.321176        -8.7396
  69   1.0000      -0.319354        -8.6901
  70   1.0000      -0.312619        -8.5068
  71   1.0000      -0.279065        -7.5937
  72   1.0000      -0.275796        -7.5048
  73   1.0000      -0.274691        -7.4747
  74   1.0000      -0.246008        -6.6942
  75   1.0000      -0.218992        -5.9591
  76   0.0000      -0.050518        -1.3747
  77   0.0000      -0.036776        -1.0007
  78   0.0000      -0.002593        -0.0706
  79   0.0000       0.041132         1.1192
  80   0.0000       0.048127         1.3096

MULLIKEN ATOMIC CHARGES AND SPIN POPULATIONS
--------------------------------------------
   0 C :   -0.604648   -0.000101
   1 C :    0.627584    0.000058
   2 C :    0.627373   -0.000094
   3 C :   -0.039243   -0.000223
   4 C :   -0.064442    0.000379
   5 C :    0.021022   -0.000220
   6 C :   -0.037280    0.000428
   7 C :   -0.062830   -0.000404
   8 C :    0.021719    0.000462
   9 H :   -0.051340    0.000009
  10 H :   -0.051153   -0.000012
  11 C :    0.043123   -0.000031
  12 H :    0.031520    0.000017
  13 H :    0.031496    0.000016
  14 C :   -0.036420    0.000001
  15 H :    0.016191   -0.000000
  16 H :    0.016361    0.000001
  17 C :   -0.023705    0.000000
  18 H :    0.005929    0.000000
  19 H :    0.005910    0.000000
  20 C :    0.003743   -0.000000
  21 H :    0.016907    0.000000
  22 H :    0.016976    0.000000
  23 C :    0.045573    0.000978
  24 H :    0.032066    0.000154
  25 H :    0.031880    0.000266
  26 C :   -0.043130    0.007822
  27 H :    0.019811   -0.000862
  28 H :    0.020687    0.002706
  29 C :    0.068291   -0.064613
  30 H :    0.006839    0.019257
  31 H :    0.014059    0.058672
  32 C :   -0.113568    0.990062
  33 H :   -0.016606   -0.039784
  34 C :    0.039835   -0.064734
  35 H :    0.012741    0.059261
  36 H :    0.004748    0.018922
  37 C :   -0.044584    0.008221
  38 H :    0.007826   -0.000925
  39 H :    0.008843    0.002882
  40 C :   -0.002077    0.001162
  41 H :    0.016175    0.000163
  42 H :    0.015925    0.000217
  43 C :   -0.605638    0.000132
  44 H :   -0.029502    0.000004
  45 H :   -0.029572   -0.000006
  46 H :    0.012535    0.000000
  47 H :    0.012050   -0.000241
Sum of atomic charges         :   -0.0000000

LOEWDIN ATOMIC CHARGES AND SPIN POPULATIONS
-------------------------------------------
   0 C :   -0.050380   -0.000079
   1 C :   -0.001600    0.000027
   2 C :   -0.001634   -0.000028
   3 C :   -0.051537   -0.000119
   4 C :   -0.006256    0.000284
   5 C :   -0.004029   -0.000122
   6 C :   -0.051636    0.000297
   7 C :   -0.006412   -0.000208
   8 C :   -0.003825    0.000341
   9 H :    0.030205   -0.000000
  10 H :    0.030410    0.000011
  11 C :   -0.033854    0.000003
  12 H :    0.039374    0.000013
  13 H :    0.039345    0.000012
  14 C :   -0.043719    0.000001
  15 H :    0.024338   -0.000000
  16 H :    0.024345    0.000000
  17 C :   -0.046932    0.000000
  18 H :    0.024171    0.000000
  19 H :    0.024152    0.000000
  20 C :   -0.067500   -0.000000
  21 H :    0.025161    0.000000
  22 H :    0.025155    0.000000
  23 C :   -0.034020    0.000782
  24 H :    0.039549    0.000188
  25 H :    0.039159    0.000612
  26 C :   -0.039464    0.006900
  27 H :    0.025311   -0.000277
  28 H :    0.025507    0.001654
  29 C :   -0.056908    0.009364
  30 H :    0.028723    0.015131
  31 H :    0.030787    0.046919
  32 C :   -0.010023    0.830551
  33 H :    0.006768    0.006047
  34 C :   -0.061094    0.009187
  35 H :    0.029762    0.047358
  36 H :    0.027486    0.014857
  37 C :   -0.046833    0.007316
  38 H :    0.023878   -0.000305
  39 H :    0.023819    0.001820
  40 C :   -0.068599    0.000765
  41 H :    0.024911    0.000196
  42 H :    0.024523    0.000473
  43 C :   -0.050619    0.000111
  44 H :    0.022710   -0.000000
  45 H :    0.022684    0.000000
  46 H :    0.027458   -0.000000
  47 H :    0.027184   -0.000082

  Mayer bond orders larger than 0.100000
B(  0-C ,  1-C ) :   2.1186 B(  0-C , 44-H ) :   1.1190 B(  1-C ,  3-C ) :   0.9085
B(  2-C ,  6-C ) :   0.9073 B(  2-C , 43-C ) :   2.1182 B(  3-C ,  4-C ) :   1.3967
B(  3-C ,  8-C ) :   1.3721 B(  4-C ,  5-C ) :   1.4265 B(  4-C , 11-C ) :   1.0905
B(  5-C ,  6-C ) :   1.3732 B(  5-C ,  9-H ) :   0.9214 B(  6-C ,  7-C ) :   1.3976
B(  7-C ,  8-C ) :   1.4267 B(  7-C , 23-C ) :   1.0887 B(  8-C , 10-H ) :   0.9221
B( 11-C , 12-H ) :   0.8981 B( 11-C , 13-H ) :   0.8982 B( 11-C , 14-C ) :   1.1042
B( 14-C , 15-H ) :   0.9293 B( 14-C , 16-H ) :   0.9292 B( 14-C , 17-C ) :   1.0752
B( 17-C , 18-H ) :   0.9410 B( 17-C , 19-H ) :   0.9410 B( 17-C , 20-C ) :   1.1059
B( 20-C , 21-H ) :   0.9662 B( 20-C , 22-H ) :   0.9663 B( 20-C , 46-H ) :   0.9617
B( 23-C , 24-H ) :   0.8972 B( 23-C , 25-H ) :   0.8970 B( 23-C , 26-C ) :   1.1026
B( 26-C , 27-H ) :   0.9276 B( 26-C , 28-H ) :   0.9311 B( 26-C , 29-C ) :   1.0724
B( 29-C , 30-H ) :   0.9239 B( 29-C , 31-H ) :   0.9114 B( 29-C , 32-C ) :   1.0715
B( 32-C , 33-H ) :   0.9595 B( 32-C , 34-C ) :   1.0795 B( 34-C , 35-H ) :   0.9159
B( 34-C , 36-H ) :   0.9279 B( 34-C , 37-C ) :   1.0714 B( 37-C , 38-H ) :   0.9444
B( 37-C , 39-H ) :   0.9472 B( 37-C , 40-C ) :   1.1049 B( 40-C , 41-H ) :   0.9667
B( 40-C , 42-H ) :   0.9664 B( 40-C , 47-H ) :   0.9627 B( 43-C , 45-H ) :   1.1192

FINAL SINGLE POINT ENERGY      -815.802914975527

DIPOLE MOMENT
-------------
                                X             Y             Z
Electronic contribution:     -2.25174     -13.90312      -1.36513
Nuclear contribution   :      2.28618      13.91542       1.32608
                        -----------------------------------------
Total Dipole Moment    :      0.03444       0.01230      -0.03904
                        -----------------------------------------
Magnitude (a.u.)       :      0.05349
Magnitude (Debye)      :      0.13597

Rotational constants in cm-1:     0.020790     0.002924     0.002583
Rotational constants in MHz :   623.258386    87.651943    77.426920

                             ****ORCA TERMINATED NORMALLY****
TOTAL RUN TIME: 0 days 0 hours 18 minutes 8 seconds 311 msec
