                         Program Version 5.0.4 -  RELEASE  -
|  1> ! B3LYP EPR-II OPT
|  2> %pal nprocs 16 end
|  3> *XYZFile 0 2 model.xyz
|  4>
|  5>                          ****END OF INPUT****
 Total Charge           Charge          ....    0
 Multiplicity           Mult            ....    2
 Number of Electrons    NEL             ....  153
FINAL SINGLE POINT ENERGY      -815.881678082742
FINAL SINGLE POINT ENERGY      -815.882819422282
FINAL SINGLE POINT ENERGY      -815.882882832076
FINAL SINGLE POINT ENERGY      -815.882898478920
FINAL SINGLE POINT ENERGY      -815.882899845688
                    ***********************HURRAY********************

CARTESIAN COORDINATES (ANGSTROEM)
---------------------------------
  C     -3.999402    0.213685   -0.312346
  C     -2.781646    0.139199   -0.279563
  C      2.885064   -0.115833   -0.143630
  C     -1.349191    0.051342   -0.243667
  C     -0.703564   -1.213530   -0.180788
  C      0.695159   -1.219680   -0.150529
  C      1.452624   -0.027473   -0.178968
  C      0.807017    1.237436   -0.239477
  C     -0.591703    1.243797   -0.271141
  H      1.232344   -2.159771   -0.103275
  H     -1.128899    2.184032   -0.317045
  C     -1.532392   -2.488816   -0.148153
  H     -2.179448   -2.501079   -1.035488
  H     -2.220163   -2.429221    0.705979
  C     -0.751709   -3.810467   -0.075235
  H     -0.080718   -3.896558   -0.940406
  H     -0.114007   -3.819586    0.818849
  C     -1.678891   -5.038705   -0.038189
  H     -2.351361   -4.958566    0.826232
  H     -2.320524   -5.035157   -0.929332
  C     -0.909129   -6.368999    0.033916
  H     -0.280880   -6.412178    0.930789
  H     -0.254409   -6.492930   -0.836097
  C      1.637400    2.511433   -0.265380
  H      2.291639    2.511234    0.616765
  H      2.318362    2.460718   -1.125675
  C      0.859604    3.835135   -0.314206
  H      0.226440    3.866022   -1.210469
  H      0.188546    3.911025    0.550257
  C      1.798012    5.058230   -0.323509
  H      2.442759    5.033856    0.567958
  H      2.490480    4.965092   -1.181865
  C      1.078709    6.375211   -0.385546
  H      0.119449    6.416637   -0.902426
  C      1.772366    7.668430   -0.066000
  H      2.464457    7.939372   -0.886231
  H      2.414409    7.533250    0.817778
  C      0.814060    8.852804    0.173338
  H      0.186783    8.990460   -0.717074
  H      0.134343    8.600514    0.996591
  C      1.550236   10.165209    0.492184
  H      2.166759   10.061585    1.392301
  H      2.212714   10.455496   -0.331308
  C      4.102879   -0.190997   -0.114314
  H     -5.062864    0.281032   -0.339843
  H      5.166323   -0.258816   -0.087579
  H     -1.592755   -7.223828    0.062836
  H      0.846310   10.986606    0.661613

 Multiplicity           Mult            ....    2
 Number of Electrons    NEL             ....  153
 Basis Dimension        Dim             ....  546

ORBITAL ENERGIES
----------------
                 SPIN UP ORBITALS
  NO   OCC          E(Eh)            E(eV)
   0   1.0000     -10.224062      -278.2109
   1   1.0000     -10.224057      -278.2107
   2   1.0000     -10.212192      -277.8879
   3   1.0000     -10.212108      -277.8856
   4   1.0000     -10.207090      -277.7490
   5   1.0000     -10.206876      -277.7432
   6   1.0000     -10.199992      -277.5559
   7   1.0000     -10.199926      -277.5541
   8   1.0000     -10.198126      -277.5051
   9   1.0000     -10.197942      -277.5001
  10   1.0000     -10.187601      -277.2187
  11   1.0000     -10.187152      -277.2065
  12   1.0000     -10.185829      -277.1705
  13   1.0000     -10.183938      -277.1191
  14   1.0000     -10.182555      -277.0814
  15   1.0000     -10.181439      -277.0510
  16   1.0000     -10.181062      -277.0408
  17   1.0000     -10.180958      -277.0380
  18   1.0000     -10.178641      -276.9749
  19   1.0000     -10.170885      -276.7638
  20   1.0000     -10.169285      -276.7203
  21   1.0000      -0.873024       -23.7562
  22   1.0000      -0.817151       -22.2358
  23   1.0000      -0.802625       -21.8405
  24   1.0000      -0.793705       -21.5978
  25   1.0000      -0.782601       -21.2957
  26   1.0000      -0.760820       -20.7030
  27   1.0000      -0.752587       -20.4789
  28   1.0000      -0.730646       -19.8819
  29   1.0000      -0.721199       -19.6248
  30   1.0000      -0.705199       -19.1894
  31   1.0000      -0.673802       -18.3351
  32   1.0000      -0.643042       -17.4981
  33   1.0000      -0.637536       -17.3482
  34   1.0000      -0.612108       -16.6563
  35   1.0000      -0.590665       -16.0728
  36   1.0000      -0.580027       -15.7833
  37   1.0000      -0.565703       -15.3935
  38   1.0000      -0.563321       -15.3288
  39   1.0000      -0.544538       -14.8176
  40   1.0000      -0.527234       -14.3468
  41   1.0000      -0.499683       -13.5971
  42   1.0000      -0.485278       -13.2051
  43   1.0000      -0.475092       -12.9279
  44   1.0000      -0.471878       -12.8405
  45   1.0000      -0.470688       -12.8081
  46   1.0000      -0.455689       -12.3999
  47   1.0000      -0.432812       -11.7774
  48   1.0000      -0.427997       -11.6464
  49   1.0000      -0.426762       -11.6128
  50   1.0000      -0.421975       -11.4825
  51   1.0000      -0.415684       -11.3113
  52   1.0000      -0.409553       -11.1445
  53   1.0000      -0.406096       -11.0504
  54   1.0000      -0.387880       -10.5547
  55   1.0000      -0.384648       -10.4668
  56   1.0000      -0.381687       -10.3862
  57   1.0000      -0.371493       -10.1088
  58   1.0000      -0.363755        -9.8983
  59   1.0000      -0.356625        -9.7043
  60   1.0000      -0.355679        -9.6785
  61   1.0000      -0.351450        -9.5634
  62   1.0000      -0.337176        -9.1750
  63   1.0000      -0.335724        -9.1355
  64   1.0000      -0.329230        -8.9588
  65   1.0000      -0.328029        -8.9261
  66   1.0000      -0.327441        -8.9101
  67   1.0000      -0.324382        -8.8269
  68   1.0000      -0.322595        -8.7783
  69   1.0000      -0.321319        -8.7435
  70   1.0000      -0.312156        -8.4942
  71   1.0000      -0.280135        -7.6228
  72   1.0000      -0.277253        -7.5444
  73   1.0000      -0.276144        -7.5142
  74   1.0000      -0.246706        -6.7132
  75   1.0000      -0.220501        -6.0001
  76   1.0000      -0.180907        -4.9227
  77   0.0000      -0.053870        -1.4659
  78   0.0000      -0.006205        -0.1689
  79   0.0000       0.019025         0.5177
  80   0.0000       0.022419         0.6100
  81   0.0000       0.025069         0.6822

                 SPIN DOWN ORBITALS
  NO   OCC          E(Eh)            E(eV)
   0   1.0000     -10.224064      -278.2109
   1   1.0000     -10.224053      -278.2106
   2   1.0000     -10.212201      -277.8881
   3   1.0000     -10.212103      -277.8855
   4   1.0000     -10.207091      -277.7491
   5   1.0000     -10.206875      -277.7432
   6   1.0000     -10.199986      -277.5557
   7   1.0000     -10.199929      -277.5542
   8   1.0000     -10.198124      -277.5051
   9   1.0000     -10.197943      -277.5001
  10   1.0000     -10.187589      -277.2184
  11   1.0000     -10.187152      -277.2065
  12   1.0000     -10.184810      -277.1428
  13   1.0000     -10.182317      -277.0749
  14   1.0000     -10.181925      -277.0643
  15   1.0000     -10.181439      -277.0510
  16   1.0000     -10.180958      -277.0380
  17   1.0000     -10.178403      -276.9684
  18   1.0000     -10.172078      -276.7963
  19   1.0000     -10.170885      -276.7638
  20   1.0000     -10.169279      -276.7202
  21   1.0000      -0.873012       -23.7559
  22   1.0000      -0.816396       -22.2153
  23   1.0000      -0.796363       -21.6701
  24   1.0000      -0.793528       -21.5930
  25   1.0000      -0.780864       -21.2484
  26   1.0000      -0.759747       -20.6738
  27   1.0000      -0.752271       -20.4703
  28   1.0000      -0.726439       -19.7674
  29   1.0000      -0.721084       -19.6217
  30   1.0000      -0.701780       -19.0964
  31   1.0000      -0.673032       -18.3141
  32   1.0000      -0.642518       -17.4838
  33   1.0000      -0.636816       -17.3286
  34   1.0000      -0.609941       -16.5973
  35   1.0000      -0.589341       -16.0368
  36   1.0000      -0.578988       -15.7551
  37   1.0000      -0.565288       -15.3823
  38   1.0000      -0.548251       -14.9187
  39   1.0000      -0.544238       -14.8095
  40   1.0000      -0.526657       -14.3311
  41   1.0000      -0.499347       -13.5879
  42   1.0000      -0.485254       -13.2044
  43   1.0000      -0.474925       -12.9234
  44   1.0000      -0.471043       -12.8177
  45   1.0000      -0.467065       -12.7095
  46   1.0000      -0.453287       -12.3346
  47   1.0000      -0.431989       -11.7550
  48   1.0000      -0.426368       -11.6021
  49   1.0000      -0.424656       -11.5555
  50   1.0000      -0.421694       -11.4749
  51   1.0000      -0.415399       -11.3036
  52   1.0000      -0.405386       -11.0311
  53   1.0000      -0.402655       -10.9568
  54   1.0000      -0.386229       -10.5098
  55   1.0000      -0.382060       -10.3964
  56   1.0000      -0.379482       -10.3262
  57   1.0000      -0.370344       -10.0776
  58   1.0000      -0.362277        -9.8581
  59   1.0000      -0.355184        -9.6651
  60   1.0000      -0.354589        -9.6489
  61   1.0000      -0.350466        -9.5367
  62   1.0000      -0.335557        -9.1310
  63   1.0000      -0.334594        -9.1048
  64   1.0000      -0.327952        -8.9240
  65   1.0000      -0.327411        -8.9093
  66   1.0000      -0.325922        -8.8688
  67   1.0000      -0.322970        -8.7885
  68   1.0000      -0.322428        -8.7737
  69   1.0000      -0.320888        -8.7318
  70   1.0000      -0.309288        -8.4162
  71   1.0000      -0.280127        -7.6226
  72   1.0000      -0.277252        -7.5444
  73   1.0000      -0.276132        -7.5139
  74   1.0000      -0.246649        -6.7117
  75   1.0000      -0.220469        -5.9993
  76   0.0000      -0.053881        -1.4662
  77   0.0000      -0.037476        -1.0198
  78   0.0000      -0.006075        -0.1653
  79   0.0000       0.019153         0.5212
  80   0.0000       0.022620         0.6155

MULLIKEN ATOMIC CHARGES AND SPIN POPULATIONS
--------------------------------------------
   0 C :   -0.538298   -0.000079
   1 C :   -0.004125    0.000024
   2 C :   -0.003534   -0.000086
   3 C :    0.390003   -0.000158
   4 C :    0.325903    0.000282
   5 C :   -0.412993   -0.000197
   6 C :    0.389629    0.000476
   7 C :    0.328624   -0.001118
   8 C :   -0.415071    0.000725
   9 H :    0.135081    0.000008
  10 H :    0.135501   -0.000016
  11 C :   -0.390117   -0.000019
  12 H :    0.155649    0.000015
  13 H :    0.155511    0.000014
  14 C :   -0.267424    0.000004
  15 H :    0.141745    0.000000
  16 H :    0.141571    0.000000
  17 C :   -0.262810   -0.000000
  18 H :    0.144927    0.000000
  19 H :    0.144793    0.000000
  20 C :   -0.510215   -0.000000
  21 H :    0.159540    0.000000
  22 H :    0.159649    0.000000
  23 C :   -0.395335    0.000991
  24 H :    0.156178    0.000184
  25 H :    0.155033    0.000037
  26 C :   -0.294750    0.011487
  27 H :    0.146733   -0.000546
  28 H :    0.157927   -0.001127
  29 C :   -0.274472   -0.065220
  30 H :    0.148174    0.018625
  31 H :    0.147500    0.053122
  32 C :   -0.135661    1.013203
  33 H :    0.114596   -0.049133
  34 C :   -0.283161   -0.064075
  35 H :    0.148021    0.053818
  36 H :    0.145355    0.019162
  37 C :   -0.276785    0.010677
  38 H :    0.147651   -0.000569
  39 H :    0.158260   -0.000633
  40 C :   -0.509809   -0.000135
  41 H :    0.160103    0.000185
  42 H :    0.158725    0.000173
  43 C :   -0.537377    0.000102
  44 H :    0.183969    0.000003
  45 H :    0.183838   -0.000004
  46 H :    0.144464   -0.000000
  47 H :    0.147283   -0.000206
Sum of atomic charges         :    0.0000000

LOEWDIN ATOMIC CHARGES AND SPIN POPULATIONS
-------------------------------------------
   0 C :   -0.059776   -0.000066
   1 C :   -0.029462    0.000023
   2 C :   -0.029473   -0.000013
   3 C :   -0.069220   -0.000097
   4 C :   -0.040645    0.000230
   5 C :   -0.005321   -0.000103
   6 C :   -0.069423    0.000261
   7 C :   -0.040859   -0.000183
   8 C :   -0.005037    0.000312
   9 H :    0.061018   -0.000000
  10 H :    0.061188    0.000012
  11 C :   -0.042993    0.000002
  12 H :    0.059506    0.000011
  13 H :    0.059545    0.000010
  14 C :   -0.079618    0.000001
  15 H :    0.044497    0.000000
  16 H :    0.044511    0.000000
  17 C :   -0.089820    0.000000
  18 H :    0.041063    0.000000
  19 H :    0.041061    0.000000
  20 C :   -0.078660   -0.000000
  21 H :    0.034030    0.000000
  22 H :    0.034006    0.000000
  23 C :   -0.043247    0.001013
  24 H :    0.059718    0.000145
  25 H :    0.059364    0.000387
  26 C :   -0.073014    0.008791
  27 H :    0.044567    0.000012
  28 H :    0.046809   -0.000030
  29 C :   -0.091682    0.008208
  30 H :    0.049625    0.016583
  31 H :    0.053201    0.043653
  32 C :   -0.063671    0.833039
  33 H :    0.040616    0.008841
  34 C :   -0.097322    0.008116
  35 H :    0.052408    0.043904
  36 H :    0.048624    0.016818
  37 C :   -0.088602    0.008853
  38 H :    0.039950   -0.000000
  39 H :    0.042021    0.000013
  40 C :   -0.080075    0.000704
  41 H :    0.033677    0.000174
  42 H :    0.033475    0.000340
  43 C :   -0.060196    0.000088
  44 H :    0.045387   -0.000000
  45 H :    0.045368    0.000000
  46 H :    0.031601    0.000000
  47 H :    0.031280   -0.000052

  Mayer bond orders larger than 0.100000
B(  0-C ,  1-C ) :   2.7066 B(  0-C , 44-H ) :   0.9833 B(  1-C ,  3-C ) :   0.9093
B(  2-C ,  6-C ) :   0.9140 B(  2-C , 43-C ) :   2.7042 B(  3-C ,  4-C ) :   1.3687
B(  3-C ,  5-C ) :   0.1133 B(  3-C ,  8-C ) :   1.4165 B(  4-C ,  5-C ) :   1.4385
B(  4-C , 11-C ) :   0.9439 B(  5-C ,  6-C ) :   1.4226 B(  5-C ,  9-H ) :   0.9703
B(  6-C ,  7-C ) :   1.3580 B(  6-C ,  8-C ) :   0.1136 B(  7-C ,  8-C ) :   1.4407
B(  7-C , 23-C ) :   0.9382 B(  8-C , 10-H ) :   0.9707 B( 11-C , 12-H ) :   0.9606
B( 11-C , 13-H ) :   0.9607 B( 11-C , 14-C ) :   1.0198 B( 14-C , 15-H ) :   0.9615
B( 14-C , 16-H ) :   0.9613 B( 14-C , 17-C ) :   0.9858 B( 17-C , 18-H ) :   0.9719
B( 17-C , 19-H ) :   0.9717 B( 17-C , 20-C ) :   0.9543 B( 20-C , 21-H ) :   0.9729
B( 20-C , 22-H ) :   0.9730 B( 20-C , 46-H ) :   0.9678 B( 23-C , 24-H ) :   0.9597
B( 23-C , 25-H ) :   0.9621 B( 23-C , 26-C ) :   1.0146 B( 26-C , 27-H ) :   0.9646
B( 26-C , 28-H ) :   0.9574 B( 26-C , 29-C ) :   0.9732 B( 29-C , 30-H ) :   0.9697
B( 29-C , 31-H ) :   0.9578 B( 29-C , 32-C ) :   0.9729 B( 32-C , 33-H ) :   1.0069
B( 32-C , 34-C ) :   0.9762 B( 34-C , 35-H ) :   0.9576 B( 34-C , 36-H ) :   0.9744
B( 34-C , 37-C ) :   0.9816 B( 37-C , 38-H ) :   0.9768 B( 37-C , 39-H ) :   0.9723
B( 37-C , 40-C ) :   0.9576 B( 40-C , 41-H ) :   0.9714 B( 40-C , 42-H ) :   0.9732
B( 40-C , 47-H ) :   0.9688 B( 43-C , 45-H ) :   0.9833

FINAL SINGLE POINT ENERGY      -815.882899730449

DIPOLE MOMENT
-------------
                                X             Y             Z
Electronic contribution:     -2.22278     -13.91392      -1.65123
Nuclear contribution   :      2.27586      13.93212       1.60986
                        -----------------------------------------
Total Dipole Moment    :      0.05308       0.01821      -0.04137
                        -----------------------------------------
Magnitude (a.u.)       :      0.06972
Magnitude (Debye)      :      0.17721

Rotational constants in cm-1:     0.020647     0.002915     0.002575
Rotational constants in MHz :   618.979948    87.377282    77.189680

                             ****ORCA TERMINATED NORMALLY****
TOTAL RUN TIME: 0 days 0 hours 11 minutes 19 seconds 38 msec
