                         Program Version 5.0.4 -  RELEASE  -
|  1> ! B3LYP cc-pVDZ OPT
|  2> %pal nprocs 16 end
|  3> *XYZFile 0 2 model.xyz
|  4>
|  5>                          ****END OF INPUT****
 Total Charge           Charge          ....    0
 Multiplicity           Mult            ....    2
 Number of Electrons    NEL             ....  153
FINAL SINGLE POINT ENERGY      -815.802914994356
                    ***********************HURRAY********************

CARTESIAN COORDINATES (ANGSTROEM)
---------------------------------
  C     -3.990474    0.213479   -0.298481
  C     -2.777441    0.134144   -0.263858
  C      2.880897   -0.106043   -0.120379
  C     -1.347815    0.049669   -0.226224
  C     -0.698776   -1.210494   -0.168570
  C      0.696296   -1.210879   -0.135530
  C      1.451284   -0.021100   -0.157551
  C      0.802212    1.239014   -0.215171
  C     -0.592868    1.239641   -0.247866
  H      1.240450   -2.154000   -0.091082
  H     -1.136912    2.182924   -0.291454
  C     -1.520782   -2.484996   -0.145490
  H     -2.176636   -2.488439   -1.035570
  H     -2.218060   -2.430466    0.710748
  C     -0.747611   -3.804844   -0.083670
  H     -0.066124   -3.881843   -0.950966
  H     -0.105187   -3.822789    0.816044
  C     -1.670990   -5.028982   -0.062709
  H     -2.353926   -4.954869    0.803925
  H     -2.318086   -5.012047   -0.959309
  C     -0.910579   -6.356190   -0.003882
  H     -0.279930   -6.416960    0.899945
  H     -0.247011   -6.477025   -0.877573
  C      1.625503    2.512447   -0.238701
  H      2.287808    2.510699    0.646515
  H      2.316549    2.461102   -1.100306
  C      0.854202    3.833514   -0.288322
  H      0.209212    3.860788   -1.185293
  H      0.179615    3.912600    0.582541
  C      1.785706    5.054697   -0.308651
  H      2.452363    5.030736    0.576528
  H      2.476200    4.960447   -1.179361
  C      1.070499    6.365994   -0.363119
  H      0.094601    6.402918   -0.863870
  C      1.766767    7.657330   -0.078817
  H      2.447342    7.917413   -0.923811
  H      2.441944    7.532628    0.791881
  C      0.820963    8.842124    0.167214
  H      0.163448    8.965423   -0.713282
  H      0.153759    8.598599    1.013688
  C      1.557033   10.154162    0.446888
  H      2.199385   10.070464    1.340682
  H      2.206392   10.437938   -0.399527
  C      4.093969   -0.186466   -0.089393
  H     -5.060140    0.285000   -0.327657
  H      5.163597   -0.258788   -0.060858
  H     -1.599741   -7.216105    0.012542
  H      0.852686   10.984082    0.619795

 Multiplicity           Mult            ....    2
 Number of Electrons    NEL             ....  153
 Basis Dimension        Dim             ....  429

ORBITAL ENERGIES
----------------
                 SPIN UP ORBITALS
  NO   OCC          E(Eh)            E(eV)
   0   1.0000     -10.212399      -277.8935
   1   1.0000     -10.212364      -277.8926
   2   1.0000     -10.201660      -277.6013
   3   1.0000     -10.201535      -277.5979
   4   1.0000     -10.192183      -277.3434
   5   1.0000     -10.192117      -277.3416
   6   1.0000     -10.191804      -277.3331
   7   1.0000     -10.191640      -277.3286
   8   1.0000     -10.187261      -277.2095
   9   1.0000     -10.186942      -277.2008
  10   1.0000     -10.186791      -277.1967
  11   1.0000     -10.186750      -277.1956
  12   1.0000     -10.184194      -277.1260
  13   1.0000     -10.183161      -277.0979
  14   1.0000     -10.181997      -277.0662
  15   1.0000     -10.181815      -277.0613
  16   1.0000     -10.181567      -277.0545
  17   1.0000     -10.181348      -277.0486
  18   1.0000     -10.179593      -277.0008
  19   1.0000     -10.175491      -276.8892
  20   1.0000     -10.174100      -276.8513
  21   1.0000      -0.874601       -23.7991
  22   1.0000      -0.819281       -22.2938
  23   1.0000      -0.805846       -21.9282
  24   1.0000      -0.795099       -21.6357
  25   1.0000      -0.785318       -21.3696
  26   1.0000      -0.763110       -20.7653
  27   1.0000      -0.751759       -20.4564
  28   1.0000      -0.732846       -19.9417
  29   1.0000      -0.720201       -19.5977
  30   1.0000      -0.706965       -19.2375
  31   1.0000      -0.675109       -18.3707
  32   1.0000      -0.643036       -17.4979
  33   1.0000      -0.637551       -17.3487
  34   1.0000      -0.611975       -16.6527
  35   1.0000      -0.590120       -16.0580
  36   1.0000      -0.579217       -15.7613
  37   1.0000      -0.564571       -15.3628
  38   1.0000      -0.562754       -15.3133
  39   1.0000      -0.541601       -14.7377
  40   1.0000      -0.524765       -14.2796
  41   1.0000      -0.498662       -13.5693
  42   1.0000      -0.484112       -13.1734
  43   1.0000      -0.476190       -12.9578
  44   1.0000      -0.471435       -12.8284
  45   1.0000      -0.470019       -12.7899
  46   1.0000      -0.455179       -12.3861
  47   1.0000      -0.433041       -11.7837
  48   1.0000      -0.430167       -11.7054
  49   1.0000      -0.427552       -11.6343
  50   1.0000      -0.421036       -11.4570
  51   1.0000      -0.416323       -11.3287
  52   1.0000      -0.409321       -11.1382
  53   1.0000      -0.407421       -11.0865
  54   1.0000      -0.388676       -10.5764
  55   1.0000      -0.384016       -10.4496
  56   1.0000      -0.382968       -10.4211
  57   1.0000      -0.370049       -10.0695
  58   1.0000      -0.364157        -9.9092
  59   1.0000      -0.357626        -9.7315
  60   1.0000      -0.356591        -9.7033
  61   1.0000      -0.349763        -9.5175
  62   1.0000      -0.336890        -9.1672
  63   1.0000      -0.335403        -9.1268
  64   1.0000      -0.329917        -8.9775
  65   1.0000      -0.328524        -8.9396
  66   1.0000      -0.326267        -8.8782
  67   1.0000      -0.325045        -8.8449
  68   1.0000      -0.322520        -8.7762
  69   1.0000      -0.319808        -8.7024
  70   1.0000      -0.315314        -8.5801
  71   1.0000      -0.279075        -7.5940
  72   1.0000      -0.275797        -7.5048
  73   1.0000      -0.274701        -7.4750
  74   1.0000      -0.246080        -6.6962
  75   1.0000      -0.219033        -5.9602
  76   1.0000      -0.181647        -4.9429
  77   0.0000      -0.050465        -1.3732
  78   0.0000      -0.002728        -0.0742
  79   0.0000       0.041099         1.1184
  80   0.0000       0.048108         1.3091
  81   0.0000       0.050471         1.3734

                 SPIN DOWN ORBITALS
  NO   OCC          E(Eh)            E(eV)
   0   1.0000     -10.212393      -277.8933
   1   1.0000     -10.212366      -277.8926
   2   1.0000     -10.201669      -277.6015
   3   1.0000     -10.201529      -277.5977
   4   1.0000     -10.192176      -277.3432
   5   1.0000     -10.192120      -277.3417
   6   1.0000     -10.191805      -277.3331
   7   1.0000     -10.191639      -277.3286
   8   1.0000     -10.187249      -277.2091
   9   1.0000     -10.186940      -277.2007
  10   1.0000     -10.186792      -277.1967
  11   1.0000     -10.186750      -277.1956
  12   1.0000     -10.185098      -277.1506
  13   1.0000     -10.182931      -277.0916
  14   1.0000     -10.182275      -277.0738
  15   1.0000     -10.181815      -277.0613
  16   1.0000     -10.181567      -277.0545
  17   1.0000     -10.179352      -276.9942
  18   1.0000     -10.175491      -276.8892
  19   1.0000     -10.174094      -276.8512
  20   1.0000     -10.168136      -276.6890
  21   1.0000      -0.874587       -23.7987
  22   1.0000      -0.818298       -22.2670
  23   1.0000      -0.799184       -21.7469
  24   1.0000      -0.795097       -21.6357
  25   1.0000      -0.783852       -21.3297
  26   1.0000      -0.761927       -20.7331
  27   1.0000      -0.751410       -20.4469
  28   1.0000      -0.728546       -19.8248
  29   1.0000      -0.720069       -19.5941
  30   1.0000      -0.703639       -19.1470
  31   1.0000      -0.674368       -18.3505
  32   1.0000      -0.642383       -17.4801
  33   1.0000      -0.636911       -17.3312
  34   1.0000      -0.609767       -16.5926
  35   1.0000      -0.588776       -16.0214
  36   1.0000      -0.578227       -15.7343
  37   1.0000      -0.564070       -15.3491
  38   1.0000      -0.547960       -14.9107
  39   1.0000      -0.541425       -14.7329
  40   1.0000      -0.524144       -14.2627
  41   1.0000      -0.498342       -13.5606
  42   1.0000      -0.484084       -13.1726
  43   1.0000      -0.476017       -12.9531
  44   1.0000      -0.470336       -12.7985
  45   1.0000      -0.466354       -12.6901
  46   1.0000      -0.452922       -12.3246
  47   1.0000      -0.431366       -11.7381
  48   1.0000      -0.427805       -11.6412
  49   1.0000      -0.426811       -11.6141
  50   1.0000      -0.420685       -11.4474
  51   1.0000      -0.416022       -11.3205
  52   1.0000      -0.406830       -11.0704
  53   1.0000      -0.402135       -10.9426
  54   1.0000      -0.387201       -10.5363
  55   1.0000      -0.382414       -10.4060
  56   1.0000      -0.379736       -10.3332
  57   1.0000      -0.368834       -10.0365
  58   1.0000      -0.362740        -9.8707
  59   1.0000      -0.356748        -9.7076
  60   1.0000      -0.354888        -9.6570
  61   1.0000      -0.348721        -9.4892
  62   1.0000      -0.335644        -9.1333
  63   1.0000      -0.333915        -9.0863
  64   1.0000      -0.328452        -8.9376
  65   1.0000      -0.327222        -8.9042
  66   1.0000      -0.325570        -8.8592
  67   1.0000      -0.324753        -8.8370
  68   1.0000      -0.321170        -8.7395
  69   1.0000      -0.319351        -8.6900
  70   1.0000      -0.312615        -8.5067
  71   1.0000      -0.279065        -7.5937
  72   1.0000      -0.275796        -7.5048
  73   1.0000      -0.274691        -7.4747
  74   1.0000      -0.246008        -6.6942
  75   1.0000      -0.218993        -5.9591
  76   0.0000      -0.050518        -1.3747
  77   0.0000      -0.036792        -1.0012
  78   0.0000      -0.002593        -0.0706
  79   0.0000       0.041131         1.1192
  80   0.0000       0.048127         1.3096

MULLIKEN ATOMIC CHARGES AND SPIN POPULATIONS
--------------------------------------------
   0 C :   -0.604647   -0.000102
   1 C :    0.627585    0.000058
   2 C :    0.627380   -0.000095
   3 C :   -0.039244   -0.000223
   4 C :   -0.064447    0.000379
   5 C :    0.021027   -0.000220
   6 C :   -0.037276    0.000428
   7 C :   -0.062834   -0.000403
   8 C :    0.021720    0.000461
   9 H :   -0.051340    0.000009
  10 H :   -0.051151   -0.000012
  11 C :    0.043127   -0.000031
  12 H :    0.031516    0.000017
  13 H :    0.031499    0.000016
  14 C :   -0.036422    0.000001
  15 H :    0.016199   -0.000000
  16 H :    0.016354    0.000001
  17 C :   -0.023704    0.000000
  18 H :    0.005927    0.000000
  19 H :    0.005912    0.000000
  20 C :    0.003743   -0.000000
  21 H :    0.016909    0.000000
  22 H :    0.016973    0.000000
  23 C :    0.045562    0.000974
  24 H :    0.032070    0.000154
  25 H :    0.031882    0.000266
  26 C :   -0.043107    0.007817
  27 H :    0.019803   -0.000862
  28 H :    0.020694    0.002706
  29 C :    0.068225   -0.064623
  30 H :    0.006839    0.019283
  31 H :    0.014047    0.058674
  32 C :   -0.113464    0.990042
  33 H :   -0.016594   -0.039783
  34 C :    0.039786   -0.064743
  35 H :    0.012736    0.059268
  36 H :    0.004731    0.018919
  37 C :   -0.044557    0.008232
  38 H :    0.007825   -0.000926
  39 H :    0.008841    0.002882
  40 C :   -0.002087    0.001165
  41 H :    0.016174    0.000163
  42 H :    0.015927    0.000217
  43 C :   -0.605647    0.000132
  44 H :   -0.029501    0.000004
  45 H :   -0.029573   -0.000006
  46 H :    0.012535    0.000000
  47 H :    0.012048   -0.000241
Sum of atomic charges         :   -0.0000000

LOEWDIN ATOMIC CHARGES AND SPIN POPULATIONS
-------------------------------------------
   0 C :   -0.050376   -0.000079
   1 C :   -0.001604    0.000027
   2 C :   -0.001629   -0.000027
   3 C :   -0.051539   -0.000119
   4 C :   -0.006256    0.000284
   5 C :   -0.004028   -0.000122
   6 C :   -0.051635    0.000296
   7 C :   -0.006411   -0.000208
   8 C :   -0.003825    0.000341
   9 H :    0.030205   -0.000000
  10 H :    0.030411    0.000011
  11 C :   -0.033854    0.000003
  12 H :    0.039372    0.000013
  13 H :    0.039347    0.000012
  14 C :   -0.043719    0.000001
  15 H :    0.024339   -0.000000
  16 H :    0.024345    0.000000
  17 C :   -0.046932    0.000000
  18 H :    0.024170    0.000000
  19 H :    0.024153    0.000000
  20 C :   -0.067500   -0.000000
  21 H :    0.025161    0.000000
  22 H :    0.025154    0.000000
  23 C :   -0.034020    0.000781
  24 H :    0.039551    0.000189
  25 H :    0.039160    0.000611
  26 C :   -0.039467    0.006894
  27 H :    0.025312   -0.000277
  28 H :    0.025502    0.001654
  29 C :   -0.056918    0.009360
  30 H :    0.028727    0.015150
  31 H :    0.030782    0.046917
  32 C :   -0.010001    0.830539
  33 H :    0.006774    0.006046
  34 C :   -0.061101    0.009184
  35 H :    0.029758    0.047360
  36 H :    0.027486    0.014854
  37 C :   -0.046835    0.007325
  38 H :    0.023877   -0.000305
  39 H :    0.023817    0.001820
  40 C :   -0.068600    0.000767
  41 H :    0.024912    0.000196
  42 H :    0.024523    0.000473
  43 C :   -0.050625    0.000111
  44 H :    0.022710   -0.000000
  45 H :    0.022683    0.000000
  46 H :    0.027458   -0.000000
  47 H :    0.027186   -0.000081

  Mayer bond orders larger than 0.100000
B(  0-C ,  1-C ) :   2.1186 B(  0-C , 44-H ) :   1.1190 B(  1-C ,  3-C ) :   0.9085
B(  2-C ,  6-C ) :   0.9073 B(  2-C , 43-C ) :   2.1182 B(  3-C ,  4-C ) :   1.3967
B(  3-C ,  8-C ) :   1.3721 B(  4-C ,  5-C ) :   1.4265 B(  4-C , 11-C ) :   1.0905
B(  5-C ,  6-C ) :   1.3732 B(  5-C ,  9-H ) :   0.9214 B(  6-C ,  7-C ) :   1.3976
B(  7-C ,  8-C ) :   1.4267 B(  7-C , 23-C ) :   1.0887 B(  8-C , 10-H ) :   0.9221
B( 11-C , 12-H ) :   0.8981 B( 11-C , 13-H ) :   0.8982 B( 11-C , 14-C ) :   1.1042
B( 14-C , 15-H ) :   0.9293 B( 14-C , 16-H ) :   0.9292 B( 14-C , 17-C ) :   1.0752
B( 17-C , 18-H ) :   0.9410 B( 17-C , 19-H ) :   0.9410 B( 17-C , 20-C ) :   1.1059
B( 20-C , 21-H ) :   0.9662 B( 20-C , 22-H ) :   0.9663 B( 20-C , 46-H ) :   0.9617
B( 23-C , 24-H ) :   0.8972 B( 23-C , 25-H ) :   0.8969 B( 23-C , 26-C ) :   1.1026
B( 26-C , 27-H ) :   0.9276 B( 26-C , 28-H ) :   0.9311 B( 26-C , 29-C ) :   1.0723
B( 29-C , 30-H ) :   0.9239 B( 29-C , 31-H ) :   0.9114 B( 29-C , 32-C ) :   1.0714
B( 32-C , 33-H ) :   0.9595 B( 32-C , 34-C ) :   1.0795 B( 34-C , 35-H ) :   0.9159
B( 34-C , 36-H ) :   0.9279 B( 34-C , 37-C ) :   1.0714 B( 37-C , 38-H ) :   0.9444
B( 37-C , 39-H ) :   0.9472 B( 37-C , 40-C ) :   1.1049 B( 40-C , 41-H ) :   0.9667
B( 40-C , 42-H ) :   0.9664 B( 40-C , 47-H ) :   0.9627 B( 43-C , 45-H ) :   1.1192

FINAL SINGLE POINT ENERGY      -815.802914861652

DIPOLE MOMENT
-------------
                                X             Y             Z
Electronic contribution:     -2.25596     -13.90279      -1.36084
Nuclear contribution   :      2.29039      13.91507       1.32161
                        -----------------------------------------
Total Dipole Moment    :      0.03444       0.01228      -0.03923
                        -----------------------------------------
Magnitude (a.u.)       :      0.05362
Magnitude (Debye)      :      0.13630

Rotational constants in cm-1:     0.020792     0.002924     0.002583
Rotational constants in MHz :   623.315327    87.649373    77.425815

                             ****ORCA TERMINATED NORMALLY****
TOTAL RUN TIME: 0 days 0 hours 3 minutes 1 seconds 496 msec
