                         Program Version 5.0.4 -  RELEASE  -
|  1> ! B3LYP cc-pVDZ AUTOAUX
|  2> %pal nprocs 16 end
|  3> *XYZFile 0 2 opt.xyz
|  4> %EPRNMR
|  5>         GTENSOR   TRUE
|  6>         NUCLEI    = ALL H {SHIFT, AISO, ADIP, AORB}
|  7>         ORI       GIAO
|  8> END
|  9>
| 10>                          ****END OF INPUT****

CARTESIAN COORDINATES (ANGSTROEM)
---------------------------------
  C     -4.033095    0.125995   -0.120550
  C     -2.818554    0.064283   -0.113733
  C      2.844701   -0.087698   -0.094014
  C     -1.387308    0.001670   -0.109120
  C     -0.717415   -1.248577   -0.131387
  C      0.677891   -1.227304   -0.125201
  C      1.413450   -0.025455   -0.098238
  C      0.743520    1.224786   -0.076040
  C     -0.651774    1.203497   -0.082207
  H      1.237515   -2.162251   -0.141592
  H     -1.211574    2.138326   -0.066066
  C     -1.519082   -2.535740   -0.160319
  H     -2.193391   -2.502424   -1.035822
  H     -2.198917   -2.538057    0.711570
  C     -0.725170   -3.844428   -0.184263
  H     -0.057419   -3.863303   -1.065313
  H     -0.067448   -3.901298    0.702698
  C     -1.630154   -5.082043   -0.216172
  H     -2.302557   -5.063679    0.661573
  H     -2.289170   -5.027876   -1.102556
  C     -0.849650   -6.398680   -0.237162
  H     -0.209987   -6.499597    0.656655
  H     -0.192325   -6.460562   -1.121673
  C      1.544976    2.512262   -0.046310
  H      2.211265    2.483799    0.835489
  H      2.232417    2.510877   -0.912033
  C      0.748806    3.819980   -0.035637
  H      0.094974    3.867835   -0.925718
  H      0.077234    3.843479    0.842094
  C      1.650750    5.059985   -0.009203
  H      2.308780    5.015134    0.879125
  H      2.325397    5.040432   -0.885895
  C      0.871144    6.379748    0.002295
  H      0.196174    6.397851    0.879166
  H      0.212832    6.422731   -0.886310
  C      1.768137    7.622332    0.028249
  H      2.440869    7.614214   -0.849002
  H      2.424364    7.589422    0.917345
  C      0.965992    8.948773    0.039424
  H      0.313046    8.962787   -0.853435
  H      0.295262    8.937141    0.919053
  C      1.821040   10.171631    0.065838
  H      2.200965   10.570215    1.010891
  H      2.218733   10.598274   -0.859437
  C      4.059287   -0.148837   -0.092234
  H     -5.104117    0.181270   -0.124553
  H      5.130370   -0.203000   -0.089533
  H     -1.525743   -7.268664   -0.263008

 Total Charge           Charge          ....    0
 Multiplicity           Mult            ....    2
 Number of Electrons    NEL             ....  153
 Basis Dimension        Dim             ....  429

ORBITAL ENERGIES
----------------
                 SPIN UP ORBITALS
  NO   OCC          E(Eh)            E(eV)
   0   1.0000     -10.212661      -277.9006
   1   1.0000     -10.212630      -277.8998
   2   1.0000     -10.201848      -277.6064
   3   1.0000     -10.201774      -277.6044
   4   1.0000     -10.192433      -277.3502
   5   1.0000     -10.192378      -277.3487
   6   1.0000     -10.191998      -277.3384
   7   1.0000     -10.191988      -277.3381
   8   1.0000     -10.187377      -277.2126
   9   1.0000     -10.187159      -277.2067
  10   1.0000     -10.187155      -277.2066
  11   1.0000     -10.186991      -277.2021
  12   1.0000     -10.185998      -277.1751
  13   1.0000     -10.184130      -277.1243
  14   1.0000     -10.182812      -277.0884
  15   1.0000     -10.182030      -277.0671
  16   1.0000     -10.181772      -277.0601
  17   1.0000     -10.181768      -277.0600
  18   1.0000     -10.180611      -277.0285
  19   1.0000     -10.179666      -277.0028
  20   1.0000     -10.175687      -276.8945
  21   1.0000      -0.874853       -23.8060
  22   1.0000      -0.819355       -22.2958
  23   1.0000      -0.806457       -21.9448
  24   1.0000      -0.795344       -21.6424
  25   1.0000      -0.785567       -21.3764
  26   1.0000      -0.762989       -20.7620
  27   1.0000      -0.752003       -20.4630
  28   1.0000      -0.733475       -19.9589
  29   1.0000      -0.720464       -19.6048
  30   1.0000      -0.706533       -19.2257
  31   1.0000      -0.670969       -18.2580
  32   1.0000      -0.642032       -17.4706
  33   1.0000      -0.636776       -17.3276
  34   1.0000      -0.611135       -16.6298
  35   1.0000      -0.589678       -16.0460
  36   1.0000      -0.578027       -15.7289
  37   1.0000      -0.571460       -15.5502
  38   1.0000      -0.563402       -15.3310
  39   1.0000      -0.541872       -14.7451
  40   1.0000      -0.525188       -14.2911
  41   1.0000      -0.498922       -13.5764
  42   1.0000      -0.484331       -13.1793
  43   1.0000      -0.481201       -13.0941
  44   1.0000      -0.476141       -12.9565
  45   1.0000      -0.470471       -12.8022
  46   1.0000      -0.460082       -12.5195
  47   1.0000      -0.430515       -11.7149
  48   1.0000      -0.427991       -11.6462
  49   1.0000      -0.427640       -11.6367
  50   1.0000      -0.421290       -11.4639
  51   1.0000      -0.419641       -11.4190
  52   1.0000      -0.412942       -11.2367
  53   1.0000      -0.403142       -10.9701
  54   1.0000      -0.391829       -10.6622
  55   1.0000      -0.389213       -10.5910
  56   1.0000      -0.374821       -10.1994
  57   1.0000      -0.372845       -10.1456
  58   1.0000      -0.363407        -9.8888
  59   1.0000      -0.359701        -9.7880
  60   1.0000      -0.353764        -9.6264
  61   1.0000      -0.343040        -9.3346
  62   1.0000      -0.341154        -9.2833
  63   1.0000      -0.330299        -8.9879
  64   1.0000      -0.329661        -8.9705
  65   1.0000      -0.327325        -8.9070
  66   1.0000      -0.324281        -8.8241
  67   1.0000      -0.323505        -8.8030
  68   1.0000      -0.320317        -8.7163
  69   1.0000      -0.319144        -8.6844
  70   1.0000      -0.317892        -8.6503
  71   1.0000      -0.279311        -7.6005
  72   1.0000      -0.276042        -7.5115
  73   1.0000      -0.274955        -7.4819
  74   1.0000      -0.246216        -6.6999
  75   1.0000      -0.219232        -5.9656
  76   1.0000      -0.198816        -5.4101
  77   0.0000      -0.050725        -1.3803
  78   0.0000      -0.003008        -0.0819
  79   0.0000       0.040770         1.1094
  80   0.0000       0.047799         1.3007
  81   0.0000       0.050179         1.3654

                 SPIN DOWN ORBITALS
  NO   OCC          E(Eh)            E(eV)
   0   1.0000     -10.212661      -277.9006
   1   1.0000     -10.212630      -277.8998
   2   1.0000     -10.201845      -277.6063
   3   1.0000     -10.201774      -277.6044
   4   1.0000     -10.192433      -277.3502
   5   1.0000     -10.192378      -277.3487
   6   1.0000     -10.191998      -277.3384
   7   1.0000     -10.191988      -277.3381
   8   1.0000     -10.187371      -277.2125
   9   1.0000     -10.187159      -277.2067
  10   1.0000     -10.187155      -277.2066
  11   1.0000     -10.186991      -277.2021
  12   1.0000     -10.185018      -277.1484
  13   1.0000     -10.182777      -277.0874
  14   1.0000     -10.182030      -277.0671
  15   1.0000     -10.181768      -277.0600
  16   1.0000     -10.180576      -277.0276
  17   1.0000     -10.180209      -277.0176
  18   1.0000     -10.179475      -276.9976
  19   1.0000     -10.175687      -276.8945
  20   1.0000     -10.171937      -276.7925
  21   1.0000      -0.874850       -23.8059
  22   1.0000      -0.819182       -22.2911
  23   1.0000      -0.804692       -21.8968
  24   1.0000      -0.795344       -21.6424
  25   1.0000      -0.782568       -21.2948
  26   1.0000      -0.760350       -20.6902
  27   1.0000      -0.751481       -20.4488
  28   1.0000      -0.729744       -19.8574
  29   1.0000      -0.720368       -19.6022
  30   1.0000      -0.702804       -19.1243
  31   1.0000      -0.665340       -18.1048
  32   1.0000      -0.640908       -17.4400
  33   1.0000      -0.633846       -17.2478
  34   1.0000      -0.606371       -16.5002
  35   1.0000      -0.586551       -15.9609
  36   1.0000      -0.576406       -15.6848
  37   1.0000      -0.566225       -15.4078
  38   1.0000      -0.559364       -15.2211
  39   1.0000      -0.541868       -14.7450
  40   1.0000      -0.525162       -14.2904
  41   1.0000      -0.498895       -13.5756
  42   1.0000      -0.484325       -13.1792
  43   1.0000      -0.480429       -13.0731
  44   1.0000      -0.476088       -12.9550
  45   1.0000      -0.470464       -12.8020
  46   1.0000      -0.457882       -12.4596
  47   1.0000      -0.430240       -11.7074
  48   1.0000      -0.426883       -11.6161
  49   1.0000      -0.425627       -11.5819
  50   1.0000      -0.419991       -11.4285
  51   1.0000      -0.419119       -11.4048
  52   1.0000      -0.410916       -11.1816
  53   1.0000      -0.400123       -10.8879
  54   1.0000      -0.389874       -10.6090
  55   1.0000      -0.386559       -10.5188
  56   1.0000      -0.371974       -10.1219
  57   1.0000      -0.371813       -10.1175
  58   1.0000      -0.361391        -9.8339
  59   1.0000      -0.359093        -9.7714
  60   1.0000      -0.352948        -9.6042
  61   1.0000      -0.340699        -9.2709
  62   1.0000      -0.340369        -9.2619
  63   1.0000      -0.329633        -8.9698
  64   1.0000      -0.329230        -8.9588
  65   1.0000      -0.326934        -8.8963
  66   1.0000      -0.323619        -8.8061
  67   1.0000      -0.323091        -8.7917
  68   1.0000      -0.319970        -8.7068
  69   1.0000      -0.318802        -8.6750
  70   1.0000      -0.314218        -8.5503
  71   1.0000      -0.279311        -7.6004
  72   1.0000      -0.276042        -7.5115
  73   1.0000      -0.274942        -7.4815
  74   1.0000      -0.246215        -6.6998
  75   1.0000      -0.219232        -5.9656
  76   0.0000      -0.050724        -1.3803
  77   0.0000      -0.045008        -1.2247
  78   0.0000      -0.003007        -0.0818
  79   0.0000       0.040771         1.1094
  80   0.0000       0.047800         1.3007

MULLIKEN ATOMIC CHARGES AND SPIN POPULATIONS
--------------------------------------------
   0 C :   -0.604973    0.000000
   1 C :    0.626511   -0.000000
   2 C :    0.626492    0.000003
   3 C :   -0.038835    0.000002
   4 C :   -0.064143   -0.000004
   5 C :    0.020309    0.000008
   6 C :   -0.037599    0.000010
   7 C :   -0.063667    0.000104
   8 C :    0.021768   -0.000008
   9 H :   -0.050810    0.000003
  10 H :   -0.050908   -0.000001
  11 C :    0.042663    0.000000
  12 H :    0.031684   -0.000000
  13 H :    0.031715   -0.000000
  14 C :   -0.036589    0.000000
  15 H :    0.016530   -0.000000
  16 H :    0.016372   -0.000000
  17 C :   -0.024388    0.000000
  18 H :    0.006165    0.000000
  19 H :    0.006163    0.000000
  20 C :    0.003036   -0.000000
  21 H :    0.017299    0.000000
  22 H :    0.017194    0.000000
  23 C :    0.048160    0.000269
  24 H :    0.032142   -0.000007
  25 H :    0.032000   -0.000007
  26 C :   -0.035875    0.001322
  27 H :    0.016561   -0.000040
  28 H :    0.016864   -0.000039
  29 C :    0.014730    0.000813
  30 H :    0.003592   -0.000026
  31 H :    0.003639   -0.000025
  32 C :   -0.006435    0.010059
  33 H :    0.002134   -0.000242
  34 H :    0.002167   -0.000242
  35 C :   -0.000109    0.049447
  36 H :    0.003615    0.000569
  37 H :    0.003564    0.000564
  38 C :   -0.001326   -0.065257
  39 H :    0.010791    0.013307
  40 H :    0.010772    0.013377
  41 C :   -0.068747    1.056536
  42 H :    0.024995   -0.040244
  43 H :    0.024986   -0.040250
  44 C :   -0.605095   -0.000003
  45 H :   -0.028982   -0.000000
  46 H :   -0.028964    0.000000
  47 H :    0.012837    0.000000
Sum of atomic charges         :   -0.0000000

LOEWDIN ATOMIC CHARGES AND SPIN POPULATIONS
-------------------------------------------
   0 C :   -0.050517    0.000000
   1 C :   -0.001669   -0.000000
   2 C :   -0.001701    0.000002
   3 C :   -0.051677    0.000000
   4 C :   -0.006227   -0.000003
   5 C :   -0.004038    0.000007
   6 C :   -0.051656    0.000021
   7 C :   -0.006401    0.000094
   8 C :   -0.004203    0.000001
   9 H :    0.030274    0.000002
  10 H :    0.030226    0.000002
  11 C :   -0.033941   -0.000000
  12 H :    0.039397   -0.000000
  13 H :    0.039421   -0.000000
  14 C :   -0.043749    0.000000
  15 H :    0.024367    0.000000
  16 H :    0.024366    0.000000
  17 C :   -0.047013    0.000000
  18 H :    0.024195    0.000000
  19 H :    0.024199    0.000000
  20 C :   -0.067646    0.000000
  21 H :    0.025235    0.000000
  22 H :    0.025226    0.000000
  23 C :   -0.033437    0.000246
  24 H :    0.039456   -0.000000
  25 H :    0.039384   -0.000000
  26 C :   -0.042282    0.001189
  27 H :    0.024584    0.000000
  28 H :    0.024531    0.000001
  29 C :   -0.039205    0.001491
  30 H :    0.023160    0.000030
  31 H :    0.023181    0.000030
  32 C :   -0.043235    0.007232
  33 H :    0.022277    0.000083
  34 H :    0.022301    0.000083
  35 C :   -0.037456    0.050399
  36 H :    0.021888    0.001109
  37 H :    0.021872    0.001110
  38 C :   -0.068291    0.010542
  39 H :    0.029382    0.010138
  40 H :    0.029379    0.010197
  41 C :   -0.015953    0.898119
  42 H :    0.009694    0.003939
  43 H :    0.009690    0.003939
  44 C :   -0.050453   -0.000003
  45 H :    0.022764    0.000000
  46 H :    0.022781   -0.000000
  47 H :    0.027523    0.000000

  Mayer bond orders larger than 0.100000
B(  0-C ,  1-C ) :   2.1204 B(  0-C , 45-H ) :   1.1184 B(  1-C ,  3-C ) :   0.9088
B(  2-C ,  6-C ) :   0.9079 B(  2-C , 44-C ) :   2.1203 B(  3-C ,  4-C ) :   1.3969
B(  3-C ,  8-C ) :   1.3723 B(  4-C ,  5-C ) :   1.4268 B(  4-C , 11-C ) :   1.0904
B(  5-C ,  6-C ) :   1.3731 B(  5-C ,  9-H ) :   0.9213 B(  6-C ,  7-C ) :   1.3974
B(  7-C ,  8-C ) :   1.4267 B(  7-C , 23-C ) :   1.0895 B(  8-C , 10-H ) :   0.9219
B( 11-C , 12-H ) :   0.8982 B( 11-C , 13-H ) :   0.8980 B( 11-C , 14-C ) :   1.1042
B( 14-C , 15-H ) :   0.9293 B( 14-C , 16-H ) :   0.9294 B( 14-C , 17-C ) :   1.0751
B( 17-C , 18-H ) :   0.9410 B( 17-C , 19-H ) :   0.9410 B( 17-C , 20-C ) :   1.1060
B( 20-C , 21-H ) :   0.9662 B( 20-C , 22-H ) :   0.9662 B( 20-C , 47-H ) :   0.9617
B( 23-C , 24-H ) :   0.8972 B( 23-C , 25-H ) :   0.8972 B( 23-C , 26-C ) :   1.1029
B( 26-C , 27-H ) :   0.9273 B( 26-C , 28-H ) :   0.9269 B( 26-C , 29-C ) :   1.0768
B( 29-C , 30-H ) :   0.9338 B( 29-C , 31-H ) :   0.9338 B( 29-C , 32-C ) :   1.0779
B( 32-C , 33-H ) :   0.9359 B( 32-C , 34-H ) :   0.9359 B( 32-C , 35-C ) :   1.0779
B( 35-C , 36-H ) :   0.9401 B( 35-C , 37-H ) :   0.9401 B( 35-C , 38-C ) :   1.0486
B( 38-C , 39-H ) :   0.9359 B( 38-C , 40-H ) :   0.9359 B( 38-C , 41-C ) :   1.1361
B( 41-C , 42-H ) :   0.9649 B( 41-C , 43-H ) :   0.9649 B( 44-C , 46-H ) :   1.1185

FINAL SINGLE POINT ENERGY      -815.796118398472

DIPOLE MOMENT
-------------
                                X             Y             Z
Electronic contribution:     -2.07522     -10.77004      -0.12309
Nuclear contribution   :      2.05355      10.64022       0.12095
                        -----------------------------------------
Total Dipole Moment    :     -0.02167      -0.12982      -0.00213
                        -----------------------------------------
Magnitude (a.u.)       :      0.13163
Magnitude (Debye)      :      0.33459

Rotational constants in cm-1:     0.021354     0.002920     0.002583
Rotational constants in MHz :   640.175430    87.546244    77.426582

CHEMICAL SHIELDING SUMMARY (ppm)  --  Orbital contribution
----------------------------------------------------------

  Nucleus  Element    Isotropic     Anisotropy
  -------  -------  ------------   ------------
      9       H           24.223         12.472
     10       H           24.241         12.703
     12       H           28.660          5.593
     13       H           28.660          5.574
     15       H           29.804          4.603
     16       H           29.806          4.597
     18       H           29.895          6.404
     19       H           29.895          6.414
     21       H           30.316          7.861
     22       H           30.318          7.850
     24       H           28.676          5.729
     25       H           28.665          5.888
     27       H           29.803          4.516
     28       H           29.789          4.569
     30       H           29.987          4.426
     31       H           29.988          4.431
     33       H           30.000          4.187
     34       H           29.999          4.173
     36       H           30.105          4.773
     37       H           30.106          4.772
     39       H           29.187          5.919
     40       H           29.188          5.922
     42       H           26.876          5.550
     43       H           26.875          5.548
     45       H           28.121         10.442
     46       H           28.120         10.420
     47       H           30.113         10.267

                             ****ORCA TERMINATED NORMALLY****
TOTAL RUN TIME: 0 days 1 hours 9 minutes 8 seconds 48 msec
