                         Program Version 5.0.4 -  RELEASE  -
|  1> ! B3LYP cc-pVDZ AUTOAUX
|  2> %pal nprocs 16 end
|  3> *XYZFile 0 2 opt_cc-pVDZ.xyz
|  4> %EPRNMR
|  5>         GTENSOR   TRUE
|  6>         NUCLEI    = ALL H {SHIFT, AISO, ADIP, AORB}
|  7>         ORI       GIAO
|  8> END
|  9>
| 10>                          ****END OF INPUT****

CARTESIAN COORDINATES (ANGSTROEM)
---------------------------------
  C     -4.033080    0.126001   -0.121548
  C     -2.818536    0.064328   -0.114981
  C      2.844718   -0.087648   -0.095173
  C     -1.387290    0.001722   -0.110579
  C     -0.717398   -1.248535   -0.132435
  C      0.677909   -1.227259   -0.126251
  C      1.413467   -0.025401   -0.099658
  C      0.743536    1.224841   -0.077555
  C     -0.651756    1.203548   -0.083753
  H      1.237533   -2.162213   -0.142332
  H     -1.211559    2.138375   -0.067685
  C     -1.519068   -2.535706   -0.160991
  H     -2.192925   -2.502924   -1.036866
  H     -2.199353   -2.537470    0.710545
  C     -0.725160   -3.844420   -0.183718
  H     -0.057208   -3.864011   -1.064600
  H     -0.067642   -3.900582    0.703440
  C     -1.630143   -5.082054   -0.214836
  H     -2.302560   -5.063105    0.662886
  H     -2.289147   -5.028488   -1.101266
  C     -0.849633   -6.398703   -0.234918
  H     -0.209902   -6.498953    0.658925
  H     -0.192376   -6.461243   -1.119433
  C      1.544993    2.512310   -0.047940
  H      2.211758    2.483614    0.833487
  H      2.231963    2.511170   -0.914040
  C      0.748808    3.820008   -0.036456
  H      0.094729    3.868291   -0.926329
  H      0.077484    3.843063    0.841477
  C      1.650713    5.060034   -0.009632
  H      2.308710    5.014913    0.878706
  H      2.325390    5.040811   -0.886305
  C      0.871015    6.379724    0.002331
  H      0.195936    6.397406    0.879128
  H      0.212835    6.423112   -0.886352
  C      1.767957    7.622335    0.029020
  H      2.440916    7.614574   -0.848061
  H      2.423918    7.589030    0.918301
  C      0.965872    8.948839    0.040560
  H      0.313202    8.963270   -0.852497
  H      0.294853    8.936761    0.919966
  C      1.820831   10.171661    0.067843
  H      2.201274   10.569149    1.013131
  H      2.219595   10.598163   -0.857016
  C      4.059305   -0.148728   -0.093138
  H     -5.104104    0.181279   -0.125361
  H      5.130387   -0.202926   -0.090250
  H     -1.525724   -7.268710   -0.260063

 Total Charge           Charge          ....    0
 Multiplicity           Mult            ....    2
 Number of Electrons    NEL             ....  153
 Basis Dimension        Dim             ....  429

ORBITAL ENERGIES
----------------
                 SPIN UP ORBITALS
  NO   OCC          E(Eh)            E(eV)
   0   1.0000     -10.212646      -277.9002
   1   1.0000     -10.212611      -277.8993
   2   1.0000     -10.201886      -277.6074
   3   1.0000     -10.201830      -277.6059
   4   1.0000     -10.192470      -277.3512
   5   1.0000     -10.192434      -277.3502
   6   1.0000     -10.191990      -277.3381
   7   1.0000     -10.191981      -277.3379
   8   1.0000     -10.187375      -277.2126
   9   1.0000     -10.187133      -277.2060
  10   1.0000     -10.187131      -277.2059
  11   1.0000     -10.186994      -277.2022
  12   1.0000     -10.185986      -277.1748
  13   1.0000     -10.184117      -277.1239
  14   1.0000     -10.182809      -277.0883
  15   1.0000     -10.182035      -277.0673
  16   1.0000     -10.181762      -277.0598
  17   1.0000     -10.181760      -277.0598
  18   1.0000     -10.180598      -277.0281
  19   1.0000     -10.179654      -277.0025
  20   1.0000     -10.175670      -276.8941
  21   1.0000      -0.874868       -23.8064
  22   1.0000      -0.819361       -22.2959
  23   1.0000      -0.806454       -21.9447
  24   1.0000      -0.795344       -21.6424
  25   1.0000      -0.785568       -21.3764
  26   1.0000      -0.762997       -20.7622
  27   1.0000      -0.751997       -20.4629
  28   1.0000      -0.733479       -19.9590
  29   1.0000      -0.720461       -19.6047
  30   1.0000      -0.706538       -19.2259
  31   1.0000      -0.670972       -18.2581
  32   1.0000      -0.642037       -17.4707
  33   1.0000      -0.636777       -17.3276
  34   1.0000      -0.611135       -16.6298
  35   1.0000      -0.589681       -16.0460
  36   1.0000      -0.578026       -15.7289
  37   1.0000      -0.571460       -15.5502
  38   1.0000      -0.563406       -15.3311
  39   1.0000      -0.541869       -14.7450
  40   1.0000      -0.525190       -14.2911
  41   1.0000      -0.498923       -13.5764
  42   1.0000      -0.484331       -13.1793
  43   1.0000      -0.481200       -13.0941
  44   1.0000      -0.476151       -12.9567
  45   1.0000      -0.470472       -12.8022
  46   1.0000      -0.460081       -12.5194
  47   1.0000      -0.430527       -11.7152
  48   1.0000      -0.427990       -11.6462
  49   1.0000      -0.427645       -11.6368
  50   1.0000      -0.421284       -11.4637
  51   1.0000      -0.419641       -11.4190
  52   1.0000      -0.412937       -11.2366
  53   1.0000      -0.403147       -10.9702
  54   1.0000      -0.391827       -10.6621
  55   1.0000      -0.389224       -10.5913
  56   1.0000      -0.374816       -10.1993
  57   1.0000      -0.372844       -10.1456
  58   1.0000      -0.363417        -9.8891
  59   1.0000      -0.359706        -9.7881
  60   1.0000      -0.353762        -9.6263
  61   1.0000      -0.343032        -9.3344
  62   1.0000      -0.341152        -9.2832
  63   1.0000      -0.330301        -8.9879
  64   1.0000      -0.329658        -8.9704
  65   1.0000      -0.327324        -8.9069
  66   1.0000      -0.324280        -8.8241
  67   1.0000      -0.323503        -8.8030
  68   1.0000      -0.320315        -8.7162
  69   1.0000      -0.319143        -8.6843
  70   1.0000      -0.317900        -8.6505
  71   1.0000      -0.279308        -7.6004
  72   1.0000      -0.276035        -7.5113
  73   1.0000      -0.274949        -7.4817
  74   1.0000      -0.246235        -6.7004
  75   1.0000      -0.219232        -5.9656
  76   1.0000      -0.198831        -5.4105
  77   0.0000      -0.050727        -1.3804
  78   0.0000      -0.003027        -0.0824
  79   0.0000       0.040773         1.1095
  80   0.0000       0.047799         1.3007
  81   0.0000       0.050184         1.3656

                 SPIN DOWN ORBITALS
  NO   OCC          E(Eh)            E(eV)
   0   1.0000     -10.212645      -277.9002
   1   1.0000     -10.212611      -277.8993
   2   1.0000     -10.201883      -277.6074
   3   1.0000     -10.201830      -277.6059
   4   1.0000     -10.192470      -277.3512
   5   1.0000     -10.192434      -277.3502
   6   1.0000     -10.191990      -277.3381
   7   1.0000     -10.191981      -277.3379
   8   1.0000     -10.187368      -277.2124
   9   1.0000     -10.187133      -277.2060
  10   1.0000     -10.187131      -277.2059
  11   1.0000     -10.186994      -277.2022
  12   1.0000     -10.185007      -277.1481
  13   1.0000     -10.182774      -277.0874
  14   1.0000     -10.182035      -277.0673
  15   1.0000     -10.181760      -277.0598
  16   1.0000     -10.180563      -277.0272
  17   1.0000     -10.180198      -277.0173
  18   1.0000     -10.179464      -276.9973
  19   1.0000     -10.175670      -276.8941
  20   1.0000     -10.171919      -276.7920
  21   1.0000      -0.874865       -23.8063
  22   1.0000      -0.819188       -22.2912
  23   1.0000      -0.804690       -21.8967
  24   1.0000      -0.795343       -21.6424
  25   1.0000      -0.782570       -21.2948
  26   1.0000      -0.760357       -20.6904
  27   1.0000      -0.751475       -20.4487
  28   1.0000      -0.729748       -19.8575
  29   1.0000      -0.720364       -19.6021
  30   1.0000      -0.702809       -19.1244
  31   1.0000      -0.665344       -18.1049
  32   1.0000      -0.640913       -17.4401
  33   1.0000      -0.633848       -17.2479
  34   1.0000      -0.606372       -16.5002
  35   1.0000      -0.586552       -15.9609
  36   1.0000      -0.576403       -15.6847
  37   1.0000      -0.566228       -15.4078
  38   1.0000      -0.559368       -15.2212
  39   1.0000      -0.541866       -14.7449
  40   1.0000      -0.525164       -14.2904
  41   1.0000      -0.498896       -13.5757
  42   1.0000      -0.484325       -13.1792
  43   1.0000      -0.480428       -13.0731
  44   1.0000      -0.476097       -12.9553
  45   1.0000      -0.470465       -12.8020
  46   1.0000      -0.457881       -12.4596
  47   1.0000      -0.430253       -11.7078
  48   1.0000      -0.426889       -11.6162
  49   1.0000      -0.425627       -11.5819
  50   1.0000      -0.419989       -11.4285
  51   1.0000      -0.419119       -11.4048
  52   1.0000      -0.410912       -11.1815
  53   1.0000      -0.400124       -10.8879
  54   1.0000      -0.389873       -10.6090
  55   1.0000      -0.386568       -10.5191
  56   1.0000      -0.371971       -10.1218
  57   1.0000      -0.371811       -10.1175
  58   1.0000      -0.361400        -9.8342
  59   1.0000      -0.359099        -9.7716
  60   1.0000      -0.352946        -9.6041
  61   1.0000      -0.340690        -9.2706
  62   1.0000      -0.340366        -9.2618
  63   1.0000      -0.329634        -8.9698
  64   1.0000      -0.329227        -8.9587
  65   1.0000      -0.326933        -8.8963
  66   1.0000      -0.323617        -8.8061
  67   1.0000      -0.323089        -8.7917
  68   1.0000      -0.319967        -8.7068
  69   1.0000      -0.318800        -8.6750
  70   1.0000      -0.314224        -8.5505
  71   1.0000      -0.279308        -7.6004
  72   1.0000      -0.276035        -7.5113
  73   1.0000      -0.274935        -7.4814
  74   1.0000      -0.246234        -6.7004
  75   1.0000      -0.219231        -5.9656
  76   0.0000      -0.050727        -1.3803
  77   0.0000      -0.045015        -1.2249
  78   0.0000      -0.003025        -0.0823
  79   0.0000       0.040774         1.1095
  80   0.0000       0.047800         1.3007

MULLIKEN ATOMIC CHARGES AND SPIN POPULATIONS
--------------------------------------------
   0 C :   -0.604933    0.000000
   1 C :    0.626499   -0.000000
   2 C :    0.626522    0.000003
   3 C :   -0.038778    0.000002
   4 C :   -0.064219   -0.000004
   5 C :    0.020247    0.000008
   6 C :   -0.037554    0.000010
   7 C :   -0.063713    0.000104
   8 C :    0.021729   -0.000008
   9 H :   -0.050795    0.000003
  10 H :   -0.050900   -0.000001
  11 C :    0.042680    0.000000
  12 H :    0.031692   -0.000000
  13 H :    0.031715   -0.000000
  14 C :   -0.036599    0.000000
  15 H :    0.016535   -0.000000
  16 H :    0.016368   -0.000000
  17 C :   -0.024376    0.000000
  18 H :    0.006162    0.000000
  19 H :    0.006161    0.000000
  20 C :    0.003052   -0.000000
  21 H :    0.017291    0.000000
  22 H :    0.017192    0.000000
  23 C :    0.048181    0.000269
  24 H :    0.032141   -0.000007
  25 H :    0.032005   -0.000007
  26 C :   -0.035883    0.001322
  27 H :    0.016564   -0.000040
  28 H :    0.016859   -0.000039
  29 C :    0.014751    0.000814
  30 H :    0.003590   -0.000026
  31 H :    0.003634   -0.000025
  32 C :   -0.006421    0.010057
  33 H :    0.002132   -0.000241
  34 H :    0.002162   -0.000242
  35 C :   -0.000116    0.049469
  36 H :    0.003609    0.000566
  37 H :    0.003557    0.000561
  38 C :   -0.001316   -0.065287
  39 H :    0.010790    0.013312
  40 H :    0.010770    0.013384
  41 C :   -0.068723    1.056565
  42 H :    0.024982   -0.040258
  43 H :    0.024975   -0.040263
  44 C :   -0.605085   -0.000003
  45 H :   -0.028990   -0.000000
  46 H :   -0.028978    0.000000
  47 H :    0.012832    0.000000
Sum of atomic charges         :   -0.0000000

LOEWDIN ATOMIC CHARGES AND SPIN POPULATIONS
-------------------------------------------
   0 C :   -0.050496    0.000000
   1 C :   -0.001672   -0.000000
   2 C :   -0.001703    0.000002
   3 C :   -0.051640    0.000000
   4 C :   -0.006272   -0.000003
   5 C :   -0.004078    0.000007
   6 C :   -0.051624    0.000021
   7 C :   -0.006429    0.000094
   8 C :   -0.004227    0.000001
   9 H :    0.030282    0.000002
  10 H :    0.030231    0.000002
  11 C :   -0.033936   -0.000000
  12 H :    0.039403   -0.000000
  13 H :    0.039421   -0.000000
  14 C :   -0.043754    0.000000
  15 H :    0.024364    0.000000
  16 H :    0.024369    0.000000
  17 C :   -0.047007    0.000000
  18 H :    0.024195    0.000000
  19 H :    0.024196    0.000000
  20 C :   -0.067637    0.000000
  21 H :    0.025233    0.000000
  22 H :    0.025222    0.000000
  23 C :   -0.033431    0.000246
  24 H :    0.039455   -0.000000
  25 H :    0.039390   -0.000000
  26 C :   -0.042282    0.001189
  27 H :    0.024580    0.000001
  28 H :    0.024535    0.000001
  29 C :   -0.039194    0.001491
  30 H :    0.023161    0.000030
  31 H :    0.023177    0.000031
  32 C :   -0.043227    0.007232
  33 H :    0.022276    0.000084
  34 H :    0.022297    0.000083
  35 C :   -0.037444    0.050412
  36 H :    0.021883    0.001107
  37 H :    0.021870    0.001108
  38 C :   -0.068299    0.010537
  39 H :    0.029382    0.010138
  40 H :    0.029378    0.010199
  41 C :   -0.015945    0.898123
  42 H :    0.009689    0.003932
  43 H :    0.009681    0.003933
  44 C :   -0.050434   -0.000003
  45 H :    0.022760    0.000000
  46 H :    0.022777   -0.000000
  47 H :    0.027520    0.000000

  Mayer bond orders larger than 0.100000
B(  0-C ,  1-C ) :   2.1204 B(  0-C , 45-H ) :   1.1184 B(  1-C ,  3-C ) :   0.9088
B(  2-C ,  6-C ) :   0.9079 B(  2-C , 44-C ) :   2.1203 B(  3-C ,  4-C ) :   1.3969
B(  3-C ,  8-C ) :   1.3723 B(  4-C ,  5-C ) :   1.4268 B(  4-C , 11-C ) :   1.0904
B(  5-C ,  6-C ) :   1.3731 B(  5-C ,  9-H ) :   0.9213 B(  6-C ,  7-C ) :   1.3974
B(  7-C ,  8-C ) :   1.4267 B(  7-C , 23-C ) :   1.0895 B(  8-C , 10-H ) :   0.9219
B( 11-C , 12-H ) :   0.8982 B( 11-C , 13-H ) :   0.8980 B( 11-C , 14-C ) :   1.1042
B( 14-C , 15-H ) :   0.9293 B( 14-C , 16-H ) :   0.9294 B( 14-C , 17-C ) :   1.0751
B( 17-C , 18-H ) :   0.9410 B( 17-C , 19-H ) :   0.9410 B( 17-C , 20-C ) :   1.1060
B( 20-C , 21-H ) :   0.9663 B( 20-C , 22-H ) :   0.9662 B( 20-C , 47-H ) :   0.9617
B( 23-C , 24-H ) :   0.8972 B( 23-C , 25-H ) :   0.8972 B( 23-C , 26-C ) :   1.1029
B( 26-C , 27-H ) :   0.9273 B( 26-C , 28-H ) :   0.9269 B( 26-C , 29-C ) :   1.0768
B( 29-C , 30-H ) :   0.9338 B( 29-C , 31-H ) :   0.9338 B( 29-C , 32-C ) :   1.0779
B( 32-C , 33-H ) :   0.9359 B( 32-C , 34-H ) :   0.9359 B( 32-C , 35-C ) :   1.0779
B( 35-C , 36-H ) :   0.9401 B( 35-C , 37-H ) :   0.9401 B( 35-C , 38-C ) :   1.0486
B( 38-C , 39-H ) :   0.9359 B( 38-C , 40-H ) :   0.9359 B( 38-C , 41-C ) :   1.1361
B( 41-C , 42-H ) :   0.9649 B( 41-C , 43-H ) :   0.9649 B( 44-C , 46-H ) :   1.1185

FINAL SINGLE POINT ENERGY      -815.796117727342

DIPOLE MOMENT
-------------
                                X             Y             Z
Electronic contribution:     -2.07572     -10.76897      -0.13807
Nuclear contribution   :      2.05439      10.63883       0.13610
                        -----------------------------------------
Total Dipole Moment    :     -0.02133      -0.13014      -0.00197
                        -----------------------------------------
Magnitude (a.u.)       :      0.13189
Magnitude (Debye)      :      0.33525

Rotational constants in cm-1:     0.021354     0.002920     0.002583
Rotational constants in MHz :   640.176281    87.546720    77.426860

CHEMICAL SHIELDING SUMMARY (ppm)  --  Orbital contribution
----------------------------------------------------------

  Nucleus  Element    Isotropic     Anisotropy
  -------  -------  ------------   ------------
      9       H           24.220         12.477
     10       H           24.239         12.707
     12       H           28.660          5.590
     13       H           28.658          5.579
     15       H           29.804          4.606
     16       H           29.803          4.593
     18       H           29.893          6.404
     19       H           29.896          6.416
     21       H           30.314          7.861
     22       H           30.319          7.851
     24       H           28.674          5.736
     25       H           28.665          5.883
     27       H           29.802          4.519
     28       H           29.787          4.567
     30       H           29.985          4.426
     31       H           29.988          4.429
     33       H           29.997          4.185
     34       H           30.000          4.175
     36       H           30.109          4.772
     37       H           30.104          4.772
     39       H           29.192          5.918
     40       H           29.187          5.924
     42       H           26.877          5.551
     43       H           26.882          5.542
     45       H           28.121         10.441
     46       H           28.120         10.419
     47       H           30.113         10.267

                             ****ORCA TERMINATED NORMALLY****
TOTAL RUN TIME: 0 days 1 hours 8 minutes 42 seconds 718 msec
