                         Program Version 5.0.4 -  RELEASE  -
|  1> ! B3LYP cc-pVDZ AUTOAUX
|  2> %pal nprocs 16 end
|  3> *XYZFile 0 2 opt_cc-pVDZ.xyz
|  4> %EPRNMR
|  5>         GTENSOR   TRUE
|  6>         NUCLEI    = ALL H {SHIFT, AISO, ADIP, AORB}
|  7>         ORI       CenterOfElCharge
|  8> END
|  9>
| 10>                          ****END OF INPUT****

CARTESIAN COORDINATES (ANGSTROEM)
---------------------------------
  C     -4.033080    0.126001   -0.121548
  C     -2.818536    0.064328   -0.114981
  C      2.844718   -0.087648   -0.095173
  C     -1.387290    0.001722   -0.110579
  C     -0.717398   -1.248535   -0.132435
  C      0.677909   -1.227259   -0.126251
  C      1.413467   -0.025401   -0.099658
  C      0.743536    1.224841   -0.077555
  C     -0.651756    1.203548   -0.083753
  H      1.237533   -2.162213   -0.142332
  H     -1.211559    2.138375   -0.067685
  C     -1.519068   -2.535706   -0.160991
  H     -2.192925   -2.502924   -1.036866
  H     -2.199353   -2.537470    0.710545
  C     -0.725160   -3.844420   -0.183718
  H     -0.057208   -3.864011   -1.064600
  H     -0.067642   -3.900582    0.703440
  C     -1.630143   -5.082054   -0.214836
  H     -2.302560   -5.063105    0.662886
  H     -2.289147   -5.028488   -1.101266
  C     -0.849633   -6.398703   -0.234918
  H     -0.209902   -6.498953    0.658925
  H     -0.192376   -6.461243   -1.119433
  C      1.544993    2.512310   -0.047940
  H      2.211758    2.483614    0.833487
  H      2.231963    2.511170   -0.914040
  C      0.748808    3.820008   -0.036456
  H      0.094729    3.868291   -0.926329
  H      0.077484    3.843063    0.841477
  C      1.650713    5.060034   -0.009632
  H      2.308710    5.014913    0.878706
  H      2.325390    5.040811   -0.886305
  C      0.871015    6.379724    0.002331
  H      0.195936    6.397406    0.879128
  H      0.212835    6.423112   -0.886352
  C      1.767957    7.622335    0.029020
  H      2.440916    7.614574   -0.848061
  H      2.423918    7.589030    0.918301
  C      0.965872    8.948839    0.040560
  H      0.313202    8.963270   -0.852497
  H      0.294853    8.936761    0.919966
  C      1.820831   10.171661    0.067843
  H      2.201274   10.569149    1.013131
  H      2.219595   10.598163   -0.857016
  C      4.059305   -0.148728   -0.093138
  H     -5.104104    0.181279   -0.125361
  H      5.130387   -0.202926   -0.090250
  H     -1.525724   -7.268710   -0.260063

 Total Charge           Charge          ....    0
 Multiplicity           Mult            ....    2
 Number of Electrons    NEL             ....  153
 Basis Dimension        Dim             ....  429

ORBITAL ENERGIES
----------------
                 SPIN UP ORBITALS
  NO   OCC          E(Eh)            E(eV)
   0   1.0000     -10.212650      -277.9003
   1   1.0000     -10.212616      -277.8994
   2   1.0000     -10.201878      -277.6072
   3   1.0000     -10.201822      -277.6057
   4   1.0000     -10.192462      -277.3510
   5   1.0000     -10.192424      -277.3500
   6   1.0000     -10.191994      -277.3383
   7   1.0000     -10.191985      -277.3380
   8   1.0000     -10.187375      -277.2126
   9   1.0000     -10.187137      -277.2061
  10   1.0000     -10.187135      -277.2060
  11   1.0000     -10.186995      -277.2022
  12   1.0000     -10.185994      -277.1750
  13   1.0000     -10.184120      -277.1240
  14   1.0000     -10.182810      -277.0883
  15   1.0000     -10.182034      -277.0672
  16   1.0000     -10.181765      -277.0599
  17   1.0000     -10.181761      -277.0598
  18   1.0000     -10.180601      -277.0282
  19   1.0000     -10.179658      -277.0026
  20   1.0000     -10.175675      -276.8942
  21   1.0000      -0.874865       -23.8063
  22   1.0000      -0.819360       -22.2959
  23   1.0000      -0.806456       -21.9448
  24   1.0000      -0.795344       -21.6424
  25   1.0000      -0.785569       -21.3764
  26   1.0000      -0.762997       -20.7622
  27   1.0000      -0.751999       -20.4629
  28   1.0000      -0.733480       -19.9590
  29   1.0000      -0.720462       -19.6048
  30   1.0000      -0.706538       -19.2259
  31   1.0000      -0.670973       -18.2581
  32   1.0000      -0.642037       -17.4707
  33   1.0000      -0.636778       -17.3276
  34   1.0000      -0.611136       -16.6299
  35   1.0000      -0.589681       -16.0460
  36   1.0000      -0.578027       -15.7289
  37   1.0000      -0.571461       -15.5503
  38   1.0000      -0.563406       -15.3311
  39   1.0000      -0.541870       -14.7450
  40   1.0000      -0.525190       -14.2911
  41   1.0000      -0.498923       -13.5764
  42   1.0000      -0.484331       -13.1793
  43   1.0000      -0.481201       -13.0942
  44   1.0000      -0.476150       -12.9567
  45   1.0000      -0.470471       -12.8022
  46   1.0000      -0.460082       -12.5195
  47   1.0000      -0.430525       -11.7152
  48   1.0000      -0.427991       -11.6462
  49   1.0000      -0.427644       -11.6368
  50   1.0000      -0.421285       -11.4637
  51   1.0000      -0.419641       -11.4190
  52   1.0000      -0.412937       -11.2366
  53   1.0000      -0.403148       -10.9702
  54   1.0000      -0.391827       -10.6622
  55   1.0000      -0.389224       -10.5913
  56   1.0000      -0.374816       -10.1993
  57   1.0000      -0.372844       -10.1456
  58   1.0000      -0.363417        -9.8891
  59   1.0000      -0.359705        -9.7881
  60   1.0000      -0.353762        -9.6264
  61   1.0000      -0.343032        -9.3344
  62   1.0000      -0.341153        -9.2832
  63   1.0000      -0.330301        -8.9880
  64   1.0000      -0.329659        -8.9705
  65   1.0000      -0.327324        -8.9069
  66   1.0000      -0.324280        -8.8241
  67   1.0000      -0.323504        -8.8030
  68   1.0000      -0.320315        -8.7162
  69   1.0000      -0.319144        -8.6843
  70   1.0000      -0.317901        -8.6505
  71   1.0000      -0.279310        -7.6004
  72   1.0000      -0.276037        -7.5114
  73   1.0000      -0.274950        -7.4818
  74   1.0000      -0.246231        -6.7003
  75   1.0000      -0.219232        -5.9656
  76   1.0000      -0.198835        -5.4106
  77   0.0000      -0.050727        -1.3803
  78   0.0000      -0.003023        -0.0823
  79   0.0000       0.040772         1.1095
  80   0.0000       0.047798         1.3007
  81   0.0000       0.050183         1.3655

                 SPIN DOWN ORBITALS
  NO   OCC          E(Eh)            E(eV)
   0   1.0000     -10.212649      -277.9003
   1   1.0000     -10.212616      -277.8994
   2   1.0000     -10.201876      -277.6072
   3   1.0000     -10.201822      -277.6057
   4   1.0000     -10.192462      -277.3510
   5   1.0000     -10.192424      -277.3500
   6   1.0000     -10.191994      -277.3383
   7   1.0000     -10.191985      -277.3380
   8   1.0000     -10.187369      -277.2124
   9   1.0000     -10.187137      -277.2061
  10   1.0000     -10.187135      -277.2060
  11   1.0000     -10.186995      -277.2022
  12   1.0000     -10.185012      -277.1483
  13   1.0000     -10.182775      -277.0874
  14   1.0000     -10.182034      -277.0672
  15   1.0000     -10.181761      -277.0598
  16   1.0000     -10.180566      -277.0273
  17   1.0000     -10.180202      -277.0174
  18   1.0000     -10.179468      -276.9974
  19   1.0000     -10.175675      -276.8942
  20   1.0000     -10.171924      -276.7921
  21   1.0000      -0.874863       -23.8062
  22   1.0000      -0.819187       -22.2912
  23   1.0000      -0.804691       -21.8968
  24   1.0000      -0.795344       -21.6424
  25   1.0000      -0.782570       -21.2948
  26   1.0000      -0.760356       -20.6903
  27   1.0000      -0.751477       -20.4487
  28   1.0000      -0.729749       -19.8575
  29   1.0000      -0.720366       -19.6021
  30   1.0000      -0.702809       -19.1244
  31   1.0000      -0.665344       -18.1049
  32   1.0000      -0.640913       -17.4401
  33   1.0000      -0.633848       -17.2479
  34   1.0000      -0.606373       -16.5002
  35   1.0000      -0.586552       -15.9609
  36   1.0000      -0.576404       -15.6848
  37   1.0000      -0.566228       -15.4078
  38   1.0000      -0.559369       -15.2212
  39   1.0000      -0.541866       -14.7449
  40   1.0000      -0.525163       -14.2904
  41   1.0000      -0.498896       -13.5757
  42   1.0000      -0.484326       -13.1792
  43   1.0000      -0.480430       -13.0732
  44   1.0000      -0.476096       -12.9552
  45   1.0000      -0.470464       -12.8020
  46   1.0000      -0.457882       -12.4596
  47   1.0000      -0.430250       -11.7077
  48   1.0000      -0.426888       -11.6162
  49   1.0000      -0.425627       -11.5819
  50   1.0000      -0.419989       -11.4285
  51   1.0000      -0.419119       -11.4048
  52   1.0000      -0.410913       -11.1815
  53   1.0000      -0.400125       -10.8880
  54   1.0000      -0.389873       -10.6090
  55   1.0000      -0.386568       -10.5191
  56   1.0000      -0.371972       -10.1219
  57   1.0000      -0.371812       -10.1175
  58   1.0000      -0.361400        -9.8342
  59   1.0000      -0.359098        -9.7716
  60   1.0000      -0.352946        -9.6042
  61   1.0000      -0.340690        -9.2707
  62   1.0000      -0.340367        -9.2619
  63   1.0000      -0.329634        -8.9698
  64   1.0000      -0.329228        -8.9588
  65   1.0000      -0.326933        -8.8963
  66   1.0000      -0.323617        -8.8061
  67   1.0000      -0.323090        -8.7917
  68   1.0000      -0.319968        -8.7068
  69   1.0000      -0.318802        -8.6750
  70   1.0000      -0.314226        -8.5505
  71   1.0000      -0.279309        -7.6004
  72   1.0000      -0.276037        -7.5113
  73   1.0000      -0.274937        -7.4814
  74   1.0000      -0.246231        -6.7003
  75   1.0000      -0.219232        -5.9656
  76   0.0000      -0.050727        -1.3803
  77   0.0000      -0.045016        -1.2249
  78   0.0000      -0.003022        -0.0822
  79   0.0000       0.040773         1.1095
  80   0.0000       0.047799         1.3007

MULLIKEN ATOMIC CHARGES AND SPIN POPULATIONS
--------------------------------------------
   0 C :   -0.604930    0.000000
   1 C :    0.626498   -0.000000
   2 C :    0.626527    0.000003
   3 C :   -0.038783    0.000002
   4 C :   -0.064218   -0.000004
   5 C :    0.020247    0.000008
   6 C :   -0.037562    0.000010
   7 C :   -0.063709    0.000104
   8 C :    0.021729   -0.000008
   9 H :   -0.050796    0.000003
  10 H :   -0.050902   -0.000001
  11 C :    0.042681    0.000000
  12 H :    0.031692   -0.000000
  13 H :    0.031714   -0.000000
  14 C :   -0.036598    0.000000
  15 H :    0.016535   -0.000000
  16 H :    0.016368   -0.000000
  17 C :   -0.024375    0.000000
  18 H :    0.006162    0.000000
  19 H :    0.006161    0.000000
  20 C :    0.003051   -0.000000
  21 H :    0.017291    0.000000
  22 H :    0.017192    0.000000
  23 C :    0.048182    0.000269
  24 H :    0.032141   -0.000007
  25 H :    0.032004   -0.000006
  26 C :   -0.035882    0.001322
  27 H :    0.016564   -0.000040
  28 H :    0.016859   -0.000039
  29 C :    0.014751    0.000814
  30 H :    0.003590   -0.000025
  31 H :    0.003634   -0.000025
  32 C :   -0.006421    0.010052
  33 H :    0.002132   -0.000240
  34 H :    0.002162   -0.000241
  35 C :   -0.000116    0.049481
  36 H :    0.003609    0.000563
  37 H :    0.003557    0.000558
  38 C :   -0.001317   -0.065341
  39 H :    0.010790    0.013327
  40 H :    0.010770    0.013398
  41 C :   -0.068718    1.056657
  42 H :    0.024980   -0.040292
  43 H :    0.024974   -0.040298
  44 C :   -0.605083   -0.000003
  45 H :   -0.028990   -0.000000
  46 H :   -0.028978    0.000000
  47 H :    0.012832    0.000000
Sum of atomic charges         :   -0.0000000

LOEWDIN ATOMIC CHARGES AND SPIN POPULATIONS
-------------------------------------------
   0 C :   -0.050495    0.000000
   1 C :   -0.001673   -0.000000
   2 C :   -0.001704    0.000002
   3 C :   -0.051643    0.000000
   4 C :   -0.006270   -0.000003
   5 C :   -0.004076    0.000007
   6 C :   -0.051627    0.000021
   7 C :   -0.006427    0.000094
   8 C :   -0.004224    0.000001
   9 H :    0.030282    0.000002
  10 H :    0.030231    0.000002
  11 C :   -0.033936   -0.000000
  12 H :    0.039403   -0.000000
  13 H :    0.039420   -0.000000
  14 C :   -0.043753    0.000000
  15 H :    0.024364    0.000000
  16 H :    0.024369    0.000000
  17 C :   -0.047007    0.000000
  18 H :    0.024195    0.000000
  19 H :    0.024196    0.000000
  20 C :   -0.067638    0.000000
  21 H :    0.025233    0.000000
  22 H :    0.025223    0.000000
  23 C :   -0.033432    0.000245
  24 H :    0.039455   -0.000000
  25 H :    0.039389   -0.000000
  26 C :   -0.042282    0.001189
  27 H :    0.024580    0.000001
  28 H :    0.024535    0.000001
  29 C :   -0.039195    0.001491
  30 H :    0.023162    0.000030
  31 H :    0.023177    0.000031
  32 C :   -0.043227    0.007230
  33 H :    0.022276    0.000084
  34 H :    0.022297    0.000084
  35 C :   -0.037444    0.050416
  36 H :    0.021883    0.001106
  37 H :    0.021870    0.001107
  38 C :   -0.068299    0.010512
  39 H :    0.029382    0.010144
  40 H :    0.029378    0.010206
  41 C :   -0.015943    0.898167
  42 H :    0.009689    0.003916
  43 H :    0.009681    0.003917
  44 C :   -0.050433   -0.000003
  45 H :    0.022760    0.000000
  46 H :    0.022777   -0.000000
  47 H :    0.027520    0.000000

  Mayer bond orders larger than 0.100000
B(  0-C ,  1-C ) :   2.1204 B(  0-C , 45-H ) :   1.1184 B(  1-C ,  3-C ) :   0.9088
B(  2-C ,  6-C ) :   0.9078 B(  2-C , 44-C ) :   2.1202 B(  3-C ,  4-C ) :   1.3969
B(  3-C ,  8-C ) :   1.3723 B(  4-C ,  5-C ) :   1.4268 B(  4-C , 11-C ) :   1.0904
B(  5-C ,  6-C ) :   1.3732 B(  5-C ,  9-H ) :   0.9213 B(  6-C ,  7-C ) :   1.3974
B(  7-C ,  8-C ) :   1.4267 B(  7-C , 23-C ) :   1.0895 B(  8-C , 10-H ) :   0.9219
B( 11-C , 12-H ) :   0.8982 B( 11-C , 13-H ) :   0.8980 B( 11-C , 14-C ) :   1.1042
B( 14-C , 15-H ) :   0.9293 B( 14-C , 16-H ) :   0.9294 B( 14-C , 17-C ) :   1.0751
B( 17-C , 18-H ) :   0.9410 B( 17-C , 19-H ) :   0.9410 B( 17-C , 20-C ) :   1.1060
B( 20-C , 21-H ) :   0.9663 B( 20-C , 22-H ) :   0.9662 B( 20-C , 47-H ) :   0.9617
B( 23-C , 24-H ) :   0.8972 B( 23-C , 25-H ) :   0.8972 B( 23-C , 26-C ) :   1.1029
B( 26-C , 27-H ) :   0.9273 B( 26-C , 28-H ) :   0.9269 B( 26-C , 29-C ) :   1.0768
B( 29-C , 30-H ) :   0.9338 B( 29-C , 31-H ) :   0.9338 B( 29-C , 32-C ) :   1.0779
B( 32-C , 33-H ) :   0.9359 B( 32-C , 34-H ) :   0.9359 B( 32-C , 35-C ) :   1.0779
B( 35-C , 36-H ) :   0.9401 B( 35-C , 37-H ) :   0.9401 B( 35-C , 38-C ) :   1.0486
B( 38-C , 39-H ) :   0.9359 B( 38-C , 40-H ) :   0.9359 B( 38-C , 41-C ) :   1.1361
B( 41-C , 42-H ) :   0.9649 B( 41-C , 43-H ) :   0.9649 B( 44-C , 46-H ) :   1.1185

FINAL SINGLE POINT ENERGY      -815.796118231868

DIPOLE MOMENT
-------------
                                X             Y             Z
Electronic contribution:     -2.07572     -10.76896      -0.13807
Nuclear contribution   :      2.05439      10.63883       0.13610
                        -----------------------------------------
Total Dipole Moment    :     -0.02133      -0.13013      -0.00197
                        -----------------------------------------
Magnitude (a.u.)       :      0.13188
Magnitude (Debye)      :      0.33522

Rotational constants in cm-1:     0.021354     0.002920     0.002583
Rotational constants in MHz :   640.176281    87.546720    77.426860

CHEMICAL SHIELDING SUMMARY (ppm)  --  Orbital contribution
----------------------------------------------------------

  Nucleus  Element    Isotropic     Anisotropy
  -------  -------  ------------   ------------
      9       H           30.109         11.943
     10       H           92.708         27.759
     12       H           41.964         29.651
     13       H           41.697         29.748
     15       H           65.213         15.043
     16       H           64.790         15.183
     18       H           11.412         21.910
     19       H           11.764         21.902
     21       H           10.285         16.009
     22       H           10.945         15.792
     24       H           75.035         41.813
     25       H           75.263         41.773
     27       H           95.175         13.758
     28       H           94.874         13.820
     30       H           59.772         15.385
     31       H           60.019         15.325
     33       H           76.989          6.888
     34       H           77.242          6.819
     36       H           39.144         14.512
     37       H           38.897         14.580
     39       H           45.932          7.791
     40       H           45.794          7.811
     42       H          -69.165         18.398
     43       H          -69.142         18.401
     45       H          -47.544          8.336
     46       H          -39.159          4.207
     47       H          -98.356          7.639

                             ****ORCA TERMINATED NORMALLY****
TOTAL RUN TIME: 0 days 1 hours 7 minutes 55 seconds 497 msec
