                         Program Version 5.0.4 -  RELEASE  -
|  1> ! B3LYP EPR-II AUTOAUX
|  2> %pal nprocs 16 end
|  3> *XYZFile 0 2 opt.xyz
|  4> %EPRNMR
|  5>         GTENSOR   TRUE
|  6>         NUCLEI    = ALL H {SHIFT, AISO, ADIP, AORB}
|  7> END
|  8>
|  9>                          ****END OF INPUT****

CARTESIAN COORDINATES (ANGSTROEM)
---------------------------------
  C     -4.033095    0.125995   -0.120550
  C     -2.818554    0.064283   -0.113733
  C      2.844701   -0.087698   -0.094014
  C     -1.387308    0.001670   -0.109120
  C     -0.717415   -1.248577   -0.131387
  C      0.677891   -1.227304   -0.125201
  C      1.413450   -0.025455   -0.098238
  C      0.743520    1.224786   -0.076040
  C     -0.651774    1.203497   -0.082207
  H      1.237515   -2.162251   -0.141592
  H     -1.211574    2.138326   -0.066066
  C     -1.519082   -2.535740   -0.160319
  H     -2.193391   -2.502424   -1.035822
  H     -2.198917   -2.538057    0.711570
  C     -0.725170   -3.844428   -0.184263
  H     -0.057419   -3.863303   -1.065313
  H     -0.067448   -3.901298    0.702698
  C     -1.630154   -5.082043   -0.216172
  H     -2.302557   -5.063679    0.661573
  H     -2.289170   -5.027876   -1.102556
  C     -0.849650   -6.398680   -0.237162
  H     -0.209987   -6.499597    0.656655
  H     -0.192325   -6.460562   -1.121673
  C      1.544976    2.512262   -0.046310
  H      2.211265    2.483799    0.835489
  H      2.232417    2.510877   -0.912033
  C      0.748806    3.819980   -0.035637
  H      0.094974    3.867835   -0.925718
  H      0.077234    3.843479    0.842094
  C      1.650750    5.059985   -0.009203
  H      2.308780    5.015134    0.879125
  H      2.325397    5.040432   -0.885895
  C      0.871144    6.379748    0.002295
  H      0.196174    6.397851    0.879166
  H      0.212832    6.422731   -0.886310
  C      1.768137    7.622332    0.028249
  H      2.440869    7.614214   -0.849002
  H      2.424364    7.589422    0.917345
  C      0.965992    8.948773    0.039424
  H      0.313046    8.962787   -0.853435
  H      0.295262    8.937141    0.919053
  C      1.821040   10.171631    0.065838
  H      2.200965   10.570215    1.010891
  H      2.218733   10.598274   -0.859437
  C      4.059287   -0.148837   -0.092234
  H     -5.104117    0.181270   -0.124553
  H      5.130370   -0.203000   -0.089533
  H     -1.525743   -7.268664   -0.263008

 Total Charge           Charge          ....    0
 Multiplicity           Mult            ....    2
 Number of Electrons    NEL             ....  153
 Basis Dimension        Dim             ....  546

ORBITAL ENERGIES
----------------
                 SPIN UP ORBITALS
  NO   OCC          E(Eh)            E(eV)
   0   1.0000     -10.223303      -278.1902
   1   1.0000     -10.223290      -278.1899
   2   1.0000     -10.211523      -277.8697
   3   1.0000     -10.211481      -277.8685
   4   1.0000     -10.206314      -277.7279
   5   1.0000     -10.206307      -277.7277
   6   1.0000     -10.199865      -277.5524
   7   1.0000     -10.199819      -277.5512
   8   1.0000     -10.198137      -277.5054
   9   1.0000     -10.198125      -277.5051
  10   1.0000     -10.188906      -277.2542
  11   1.0000     -10.188591      -277.2457
  12   1.0000     -10.188294      -277.2376
  13   1.0000     -10.185868      -277.1716
  14   1.0000     -10.183473      -277.1064
  15   1.0000     -10.182878      -277.0902
  16   1.0000     -10.182497      -277.0798
  17   1.0000     -10.182422      -277.0778
  18   1.0000     -10.181082      -277.0413
  19   1.0000     -10.180221      -277.0179
  20   1.0000     -10.173290      -276.8293
  21   1.0000      -0.874850       -23.8059
  22   1.0000      -0.818419       -22.2703
  23   1.0000      -0.804695       -21.8969
  24   1.0000      -0.794944       -21.6315
  25   1.0000      -0.784128       -21.3372
  26   1.0000      -0.761681       -20.7264
  27   1.0000      -0.753905       -20.5148
  28   1.0000      -0.732093       -19.9213
  29   1.0000      -0.722164       -19.6511
  30   1.0000      -0.705297       -19.1921
  31   1.0000      -0.669685       -18.2231
  32   1.0000      -0.642373       -17.4798
  33   1.0000      -0.636396       -17.3172
  34   1.0000      -0.610379       -16.6092
  35   1.0000      -0.589380       -16.0379
  36   1.0000      -0.577130       -15.7045
  37   1.0000      -0.570729       -15.5303
  38   1.0000      -0.563101       -15.3228
  39   1.0000      -0.543701       -14.7949
  40   1.0000      -0.526670       -14.3314
  41   1.0000      -0.499835       -13.6012
  42   1.0000      -0.485546       -13.2124
  43   1.0000      -0.480836       -13.0842
  44   1.0000      -0.475850       -12.9485
  45   1.0000      -0.470274       -12.7968
  46   1.0000      -0.460301       -12.5254
  47   1.0000      -0.430831       -11.7235
  48   1.0000      -0.428361       -11.6563
  49   1.0000      -0.426707       -11.6113
  50   1.0000      -0.420128       -11.4323
  51   1.0000      -0.419763       -11.4223
  52   1.0000      -0.412296       -11.2191
  53   1.0000      -0.401854       -10.9350
  54   1.0000      -0.392155       -10.6711
  55   1.0000      -0.388839       -10.5809
  56   1.0000      -0.373889       -10.1740
  57   1.0000      -0.373152       -10.1540
  58   1.0000      -0.363068        -9.8796
  59   1.0000      -0.359320        -9.7776
  60   1.0000      -0.354008        -9.6330
  61   1.0000      -0.342303        -9.3145
  62   1.0000      -0.341447        -9.2913
  63   1.0000      -0.330203        -8.9853
  64   1.0000      -0.329450        -8.9648
  65   1.0000      -0.326424        -8.8825
  66   1.0000      -0.323235        -8.7957
  67   1.0000      -0.323174        -8.7940
  68   1.0000      -0.320265        -8.7149
  69   1.0000      -0.318421        -8.6647
  70   1.0000      -0.316398        -8.6096
  71   1.0000      -0.281124        -7.6498
  72   1.0000      -0.278188        -7.5699
  73   1.0000      -0.276985        -7.5371
  74   1.0000      -0.246803        -6.7158
  75   1.0000      -0.220901        -6.0110
  76   1.0000      -0.198985        -5.4147
  77   0.0000      -0.053617        -1.4590
  78   0.0000      -0.005571        -0.1516
  79   0.0000       0.018596         0.5060
  80   0.0000       0.021244         0.5781
  81   0.0000       0.023923         0.6510

                 SPIN DOWN ORBITALS
  NO   OCC          E(Eh)            E(eV)
   0   1.0000     -10.223302      -278.1902
   1   1.0000     -10.223290      -278.1899
   2   1.0000     -10.211520      -277.8696
   3   1.0000     -10.211481      -277.8685
   4   1.0000     -10.206314      -277.7279
   5   1.0000     -10.206307      -277.7277
   6   1.0000     -10.199865      -277.5524
   7   1.0000     -10.199818      -277.5512
   8   1.0000     -10.198137      -277.5054
   9   1.0000     -10.198125      -277.5051
  10   1.0000     -10.188585      -277.2455
  11   1.0000     -10.188294      -277.2376
  12   1.0000     -10.186725      -277.1949
  13   1.0000     -10.183437      -277.1054
  14   1.0000     -10.182878      -277.0902
  15   1.0000     -10.182497      -277.0798
  16   1.0000     -10.181049      -277.0404
  17   1.0000     -10.180860      -277.0353
  18   1.0000     -10.180030      -277.0127
  19   1.0000     -10.175122      -276.8791
  20   1.0000     -10.173290      -276.8293
  21   1.0000      -0.874848       -23.8058
  22   1.0000      -0.818292       -22.2668
  23   1.0000      -0.802936       -21.8490
  24   1.0000      -0.794913       -21.6307
  25   1.0000      -0.781149       -21.2562
  26   1.0000      -0.759143       -20.6573
  27   1.0000      -0.753296       -20.4982
  28   1.0000      -0.728338       -19.8191
  29   1.0000      -0.722104       -19.6495
  30   1.0000      -0.701585       -19.0911
  31   1.0000      -0.664152       -18.0725
  32   1.0000      -0.641655       -17.4603
  33   1.0000      -0.633087       -17.2272
  34   1.0000      -0.605781       -16.4841
  35   1.0000      -0.586114       -15.9490
  36   1.0000      -0.575401       -15.6575
  37   1.0000      -0.565923       -15.3996
  38   1.0000      -0.559293       -15.2191
  39   1.0000      -0.543696       -14.7947
  40   1.0000      -0.526646       -14.3308
  41   1.0000      -0.499808       -13.6005
  42   1.0000      -0.485542       -13.2123
  43   1.0000      -0.480035       -13.0624
  44   1.0000      -0.475797       -12.9471
  45   1.0000      -0.470267       -12.7966
  46   1.0000      -0.458040       -12.4639
  47   1.0000      -0.430683       -11.7195
  48   1.0000      -0.425957       -11.5909
  49   1.0000      -0.425847       -11.5879
  50   1.0000      -0.419287       -11.4094
  51   1.0000      -0.418969       -11.4007
  52   1.0000      -0.410118       -11.1599
  53   1.0000      -0.398926       -10.8553
  54   1.0000      -0.390230       -10.6187
  55   1.0000      -0.386114       -10.5067
  56   1.0000      -0.372142       -10.1265
  57   1.0000      -0.371067       -10.0973
  58   1.0000      -0.360999        -9.8233
  59   1.0000      -0.358758        -9.7623
  60   1.0000      -0.353212        -9.6114
  61   1.0000      -0.340671        -9.2701
  62   1.0000      -0.339974        -9.2512
  63   1.0000      -0.329812        -8.9746
  64   1.0000      -0.328952        -8.9513
  65   1.0000      -0.325918        -8.8687
  66   1.0000      -0.322737        -8.7821
  67   1.0000      -0.322625        -8.7791
  68   1.0000      -0.320086        -8.7100
  69   1.0000      -0.317961        -8.6522
  70   1.0000      -0.312513        -8.5039
  71   1.0000      -0.281124        -7.6498
  72   1.0000      -0.278188        -7.5699
  73   1.0000      -0.276969        -7.5367
  74   1.0000      -0.246802        -6.7158
  75   1.0000      -0.220900        -6.0110
  76   0.0000      -0.053617        -1.4590
  77   0.0000      -0.051335        -1.3969
  78   0.0000      -0.005570        -0.1516
  79   0.0000       0.018610         0.5064
  80   0.0000       0.021267         0.5787

MULLIKEN ATOMIC CHARGES AND SPIN POPULATIONS
--------------------------------------------
   0 C :   -0.543565   -0.000002
   1 C :    0.001312    0.000020
   2 C :    0.002365   -0.000041
   3 C :    0.389802   -0.000073
   4 C :    0.335985    0.000032
   5 C :   -0.420851    0.000001
   6 C :    0.394289    0.000034
   7 C :    0.335651    0.000358
   8 C :   -0.419923   -0.000037
   9 H :    0.133975    0.000000
  10 H :    0.134129   -0.000000
  11 C :   -0.388256   -0.000004
  12 H :    0.153375   -0.000000
  13 H :    0.153427   -0.000000
  14 C :   -0.263439   -0.000001
  15 H :    0.139174   -0.000000
  16 H :    0.139265   -0.000000
  17 C :   -0.254649    0.000000
  18 H :    0.142242   -0.000000
  19 H :    0.142387   -0.000000
  20 C :   -0.508527    0.000000
  21 H :    0.157896    0.000000
  22 H :    0.157762    0.000000
  23 C :   -0.401623    0.000204
  24 H :    0.156011   -0.000007
  25 H :    0.155598   -0.000007
  26 C :   -0.264842    0.001494
  27 H :    0.142723   -0.000073
  28 H :    0.141961   -0.000073
  29 C :   -0.283796   -0.001075
  30 H :    0.142944    0.000055
  31 H :    0.143015    0.000056
  32 C :   -0.282443    0.006420
  33 H :    0.145139   -0.000268
  34 H :    0.145214   -0.000269
  35 C :   -0.303204    0.069753
  36 H :    0.155970   -0.002745
  37 H :    0.155955   -0.002754
  38 C :   -0.223238   -0.073565
  39 H :    0.147403    0.012374
  40 H :    0.147365    0.012446
  41 C :   -0.433225    1.057018
  42 H :    0.166024   -0.039634
  43 H :    0.166023   -0.039637
  44 C :   -0.542065   -0.000000
  45 H :    0.183033   -0.000000
  46 H :    0.182920   -0.000000
  47 H :    0.143316   -0.000000
Sum of atomic charges         :   -0.0000000

LOEWDIN ATOMIC CHARGES AND SPIN POPULATIONS
-------------------------------------------
   0 C :   -0.061623    0.000000
   1 C :   -0.030815    0.000000
   2 C :   -0.030753    0.000002
   3 C :   -0.070156    0.000000
   4 C :   -0.042365   -0.000003
   5 C :   -0.006740    0.000006
   6 C :   -0.070096    0.000019
   7 C :   -0.042584    0.000095
   8 C :   -0.006927    0.000001
   9 H :    0.063489    0.000002
  10 H :    0.063403    0.000002
  11 C :   -0.047291   -0.000000
  12 H :    0.062070   -0.000000
  13 H :    0.062062   -0.000000
  14 C :   -0.084551    0.000000
  15 H :    0.046937    0.000000
  16 H :    0.046973    0.000000
  17 C :   -0.095807    0.000000
  18 H :    0.043689    0.000000
  19 H :    0.043684    0.000000
  20 C :   -0.084909    0.000000
  21 H :    0.036422    0.000000
  22 H :    0.036434    0.000000
  23 C :   -0.046783    0.000230
  24 H :    0.062086    0.000001
  25 H :    0.062090    0.000001
  26 C :   -0.081649    0.001231
  27 H :    0.047294   -0.000011
  28 H :    0.047083   -0.000011
  29 C :   -0.086956    0.001372
  30 H :    0.047178    0.000057
  31 H :    0.047180    0.000057
  32 C :   -0.090844    0.007195
  33 H :    0.046454    0.000012
  34 H :    0.046479    0.000012
  35 C :   -0.086579    0.058621
  36 H :    0.046765    0.000013
  37 H :    0.046764    0.000015
  38 C :   -0.111816    0.012500
  39 H :    0.049687    0.009989
  40 H :    0.049698    0.010048
  41 C :   -0.052868    0.887232
  42 H :    0.028951    0.005655
  43 H :    0.028944    0.005656
  44 C :   -0.061574   -0.000002
  45 H :    0.048979    0.000000
  46 H :    0.048995    0.000000
  47 H :    0.033898    0.000000

  Mayer bond orders larger than 0.100000
B(  0-C ,  1-C ) :   2.7013 B(  0-C , 45-H ) :   0.9842 B(  1-C ,  3-C ) :   0.9121
B(  2-C ,  6-C ) :   0.9190 B(  2-C , 44-C ) :   2.6980 B(  3-C ,  4-C ) :   1.3699
B(  3-C ,  5-C ) :   0.1166 B(  3-C ,  8-C ) :   1.4177 B(  4-C ,  5-C ) :   1.4379
B(  4-C , 11-C ) :   0.9444 B(  5-C ,  6-C ) :   1.4236 B(  5-C ,  9-H ) :   0.9713
B(  6-C ,  7-C ) :   1.3594 B(  6-C ,  8-C ) :   0.1157 B(  7-C ,  8-C ) :   1.4418
B(  7-C , 23-C ) :   0.9374 B(  8-C , 10-H ) :   0.9720 B( 11-C , 12-H ) :   0.9603
B( 11-C , 13-H ) :   0.9602 B( 11-C , 14-C ) :   1.0212 B( 14-C , 15-H ) :   0.9605
B( 14-C , 16-H ) :   0.9606 B( 14-C , 17-C ) :   0.9876 B( 17-C , 18-H ) :   0.9711
B( 17-C , 19-H ) :   0.9712 B( 17-C , 20-C ) :   0.9539 B( 20-C , 21-H ) :   0.9729
B( 20-C , 22-H ) :   0.9728 B( 20-C , 47-H ) :   0.9676 B( 23-C , 24-H ) :   0.9618
B( 23-C , 25-H ) :   0.9614 B( 23-C , 26-C ) :   1.0112 B( 26-C , 27-H ) :   0.9612
B( 26-C , 28-H ) :   0.9606 B( 26-C , 29-C ) :   0.9704 B( 29-C , 30-H ) :   0.9760
B( 29-C , 31-H ) :   0.9758 B( 29-C , 32-C ) :   0.9714 B( 32-C , 33-H ) :   0.9802
B( 32-C , 34-H ) :   0.9801 B( 32-C , 35-C ) :   0.9561 B( 35-C , 36-H ) :   0.9788
B( 35-C , 37-H ) :   0.9788 B( 35-C , 38-C ) :   0.9366 B( 38-C , 39-H ) :   0.9776
B( 38-C , 40-H ) :   0.9776 B( 38-C , 41-C ) :   0.9742 B( 41-C , 42-H ) :   0.9734
B( 41-C , 43-H ) :   0.9734 B( 44-C , 46-H ) :   0.9841

FINAL SINGLE POINT ENERGY      -815.875538775572

DIPOLE MOMENT
-------------
                                X             Y             Z
Electronic contribution:     -2.06900     -10.78809      -0.12363
Nuclear contribution   :      2.05355      10.64022       0.12095
                        -----------------------------------------
Total Dipole Moment    :     -0.01545      -0.14787      -0.00267
                        -----------------------------------------
Magnitude (a.u.)       :      0.14870
Magnitude (Debye)      :      0.37797

Rotational constants in cm-1:     0.021354     0.002920     0.002583
Rotational constants in MHz :   640.175430    87.546244    77.426582

CHEMICAL SHIELDING SUMMARY (ppm)  --  Orbital contribution
----------------------------------------------------------

  Nucleus  Element    Isotropic     Anisotropy
  -------  -------  ------------   ------------
      9       H           24.250         12.936
     10       H           24.265         13.173
     12       H           28.810          5.865
     13       H           28.809          5.844
     15       H           30.016          4.709
     16       H           30.017          4.694
     18       H           30.134          6.439
     19       H           30.134          6.448
     21       H           30.713          8.028
     22       H           30.714          8.017
     24       H           28.830          5.990
     25       H           28.820          6.147
     27       H           30.021          4.722
     28       H           30.009          4.775
     30       H           30.223          4.498
     31       H           30.223          4.504
     33       H           30.251          4.273
     34       H           30.250          4.260
     36       H           30.365          4.879
     37       H           30.366          4.878
     39       H           29.376          5.931
     40       H           29.377          5.934
     42       H           26.935          5.599
     43       H           26.933          5.597
     45       H           28.376         10.565
     46       H           28.369         10.557
     47       H           30.488         10.340

                             ****ORCA TERMINATED NORMALLY****
TOTAL RUN TIME: 0 days 1 hours 17 minutes 40 seconds 736 msec
