                         Program Version 5.0.4 -  RELEASE  -
|  1> ! B3LYP EPR-II AUTOAUX
|  2> %pal nprocs 16 end
|  3> *XYZFile 0 2 opt_EPRII.xyz
|  4> %EPRNMR
|  5>         GTENSOR   TRUE
|  6>         NUCLEI    = ALL H {SHIFT, AISO, ADIP, AORB}
|  7>         ORI       GIAO
|  8> END
|  9>
| 10>                          ****END OF INPUT****

CARTESIAN COORDINATES (ANGSTROEM)
---------------------------------
  C     -4.043960    0.123850   -0.115421
  C     -2.824765    0.066623   -0.110425
  C      2.847272   -0.096982   -0.096248
  C     -1.390635    0.001448   -0.107709
  C     -0.723242   -1.253427   -0.131233
  C      0.675781   -1.236876   -0.126215
  C      1.413158   -0.031895   -0.099373
  C      0.745817    1.223035   -0.076136
  C     -0.653224    1.206423   -0.081055
  H      1.228967   -2.168663   -0.143294
  H     -1.206700    2.138042   -0.064205
  C     -1.530787   -2.542336   -0.160737
  H     -2.195015   -2.511226   -1.034763
  H     -2.202763   -2.546428    0.707879
  C     -0.728376   -3.852735   -0.183555
  H     -0.066727   -3.871511   -1.059841
  H     -0.079418   -3.909438    0.700584
  C     -1.636313   -5.095494   -0.217215
  H     -2.301835   -5.081265    0.656067
  H     -2.286547   -5.044637   -1.100589
  C     -0.845902   -6.415387   -0.238116
  H     -0.212809   -6.509736    0.651351
  H     -0.193301   -6.469815   -1.116752
  C      1.553504    2.511933   -0.046606
  H      2.211021    2.484958    0.832648
  H      2.232061    2.511813   -0.909979
  C      0.750474    3.822014   -0.036147
  H      0.105361    3.870902   -0.923381
  H      0.084996    3.845297    0.836938
  C      1.657834    5.065227   -0.007147
  H      2.304874    5.022269    0.879951
  H      2.327749    5.046713   -0.877945
  C      0.871154    6.387976    0.000939
  H      0.200697    6.405471    0.871534
  H      0.224756    6.430177   -0.886849
  C      1.773941    7.634144    0.030704
  H      2.442887    7.627036   -0.839358
  H      2.417177    7.603737    0.919451
  C      0.964463    8.963164    0.036488
  H      0.323854    8.977674   -0.855362
  H      0.297037    8.953751    0.908535
  C      1.825864   10.190007    0.066240
  H      2.192894   10.590708    1.006515
  H      2.220659   10.616394   -0.851208
  C      4.066492   -0.153706   -0.095147
  H     -5.108664    0.175163   -0.117826
  H      5.131232   -0.204226   -0.093239
  H     -1.515951   -7.280914   -0.265020

 Total Charge           Charge          ....    0
 Multiplicity           Mult            ....    2
 Number of Electrons    NEL             ....  153
 Basis Dimension        Dim             ....  546

ORBITAL ENERGIES
----------------
                 SPIN UP ORBITALS
  NO   OCC          E(Eh)            E(eV)
   0   1.0000     -10.224377      -278.2194
   1   1.0000     -10.224371      -278.2193
   2   1.0000     -10.212490      -277.8960
   3   1.0000     -10.212453      -277.8950
   4   1.0000     -10.207367      -277.7566
   5   1.0000     -10.207355      -277.7562
   6   1.0000     -10.200351      -277.5657
   7   1.0000     -10.200297      -277.5642
   8   1.0000     -10.198421      -277.5131
   9   1.0000     -10.198406      -277.5127
  10   1.0000     -10.187707      -277.2216
  11   1.0000     -10.187456      -277.2148
  12   1.0000     -10.187437      -277.2143
  13   1.0000     -10.184549      -277.1357
  14   1.0000     -10.182295      -277.0743
  15   1.0000     -10.181733      -277.0590
  16   1.0000     -10.181224      -277.0452
  17   1.0000     -10.181010      -277.0394
  18   1.0000     -10.179788      -277.0061
  19   1.0000     -10.178902      -276.9820
  20   1.0000     -10.171101      -276.7697
  21   1.0000      -0.873241       -23.7621
  22   1.0000      -0.817216       -22.2376
  23   1.0000      -0.803457       -21.8632
  24   1.0000      -0.793974       -21.6051
  25   1.0000      -0.783130       -21.3101
  26   1.0000      -0.760809       -20.7027
  27   1.0000      -0.752839       -20.4858
  28   1.0000      -0.731505       -19.9053
  29   1.0000      -0.721465       -19.6321
  30   1.0000      -0.704964       -19.1830
  31   1.0000      -0.669775       -18.2255
  32   1.0000      -0.642293       -17.4777
  33   1.0000      -0.636706       -17.3257
  34   1.0000      -0.611565       -16.6415
  35   1.0000      -0.590551       -16.0697
  36   1.0000      -0.578916       -15.7531
  37   1.0000      -0.572606       -15.5814
  38   1.0000      -0.564758       -15.3678
  39   1.0000      -0.544834       -14.8257
  40   1.0000      -0.527649       -14.3581
  41   1.0000      -0.499942       -13.6041
  42   1.0000      -0.485549       -13.2125
  43   1.0000      -0.481597       -13.1049
  44   1.0000      -0.475034       -12.9263
  45   1.0000      -0.471163       -12.8210
  46   1.0000      -0.461293       -12.5524
  47   1.0000      -0.431664       -11.7462
  48   1.0000      -0.429514       -11.6877
  49   1.0000      -0.425342       -11.5741
  50   1.0000      -0.421016       -11.4564
  51   1.0000      -0.419260       -11.4086
  52   1.0000      -0.412096       -11.2137
  53   1.0000      -0.400490       -10.8979
  54   1.0000      -0.393284       -10.7018
  55   1.0000      -0.388139       -10.5618
  56   1.0000      -0.374178       -10.1819
  57   1.0000      -0.373442       -10.1619
  58   1.0000      -0.362532        -9.8650
  59   1.0000      -0.359294        -9.7769
  60   1.0000      -0.355881        -9.6840
  61   1.0000      -0.343615        -9.3502
  62   1.0000      -0.342192        -9.3115
  63   1.0000      -0.331135        -9.0106
  64   1.0000      -0.329013        -8.9529
  65   1.0000      -0.325959        -8.8698
  66   1.0000      -0.325525        -8.8580
  67   1.0000      -0.322324        -8.7709
  68   1.0000      -0.321933        -8.7602
  69   1.0000      -0.320553        -8.7227
  70   1.0000      -0.314539        -8.5590
  71   1.0000      -0.280390        -7.6298
  72   1.0000      -0.277510        -7.5514
  73   1.0000      -0.276418        -7.5217
  74   1.0000      -0.246876        -6.7178
  75   1.0000      -0.220712        -6.0059
  76   1.0000      -0.198695        -5.4068
  77   0.0000      -0.054168        -1.4740
  78   0.0000      -0.006506        -0.1771
  79   0.0000       0.018469         0.5026
  80   0.0000       0.021649         0.5891
  81   0.0000       0.024055         0.6546

                 SPIN DOWN ORBITALS
  NO   OCC          E(Eh)            E(eV)
   0   1.0000     -10.224376      -278.2194
   1   1.0000     -10.224371      -278.2193
   2   1.0000     -10.212487      -277.8959
   3   1.0000     -10.212453      -277.8950
   4   1.0000     -10.207367      -277.7566
   5   1.0000     -10.207355      -277.7562
   6   1.0000     -10.200351      -277.5657
   7   1.0000     -10.200297      -277.5642
   8   1.0000     -10.198421      -277.5131
   9   1.0000     -10.198406      -277.5127
  10   1.0000     -10.187700      -277.2214
  11   1.0000     -10.187456      -277.2148
  12   1.0000     -10.185403      -277.1589
  13   1.0000     -10.182259      -277.0733
  14   1.0000     -10.181733      -277.0590
  15   1.0000     -10.181224      -277.0452
  16   1.0000     -10.179754      -277.0052
  17   1.0000     -10.179464      -276.9973
  18   1.0000     -10.178711      -276.9768
  19   1.0000     -10.173665      -276.8395
  20   1.0000     -10.171101      -276.7697
  21   1.0000      -0.873239       -23.7620
  22   1.0000      -0.817090       -22.2342
  23   1.0000      -0.801740       -21.8164
  24   1.0000      -0.793941       -21.6042
  25   1.0000      -0.780172       -21.2296
  26   1.0000      -0.758284       -20.6339
  27   1.0000      -0.752229       -20.4692
  28   1.0000      -0.727777       -19.8038
  29   1.0000      -0.721391       -19.6300
  30   1.0000      -0.701244       -19.0818
  31   1.0000      -0.664192       -18.0736
  32   1.0000      -0.641342       -17.4518
  33   1.0000      -0.633687       -17.2435
  34   1.0000      -0.606797       -16.5118
  35   1.0000      -0.587433       -15.9849
  36   1.0000      -0.577099       -15.7037
  37   1.0000      -0.567521       -15.4430
  38   1.0000      -0.561334       -15.2747
  39   1.0000      -0.544831       -14.8256
  40   1.0000      -0.527630       -14.3575
  41   1.0000      -0.499918       -13.6034
  42   1.0000      -0.485546       -13.2124
  43   1.0000      -0.480811       -13.0835
  44   1.0000      -0.474986       -12.9250
  45   1.0000      -0.471156       -12.8208
  46   1.0000      -0.459038       -12.4911
  47   1.0000      -0.431571       -11.7436
  48   1.0000      -0.427016       -11.6197
  49   1.0000      -0.424502       -11.5513
  50   1.0000      -0.420607       -11.4453
  51   1.0000      -0.418333       -11.3834
  52   1.0000      -0.409702       -11.1486
  53   1.0000      -0.397707       -10.8222
  54   1.0000      -0.391234       -10.6460
  55   1.0000      -0.385379       -10.4867
  56   1.0000      -0.373262       -10.1570
  57   1.0000      -0.370715       -10.0877
  58   1.0000      -0.360358        -9.8058
  59   1.0000      -0.358669        -9.7599
  60   1.0000      -0.355051        -9.6614
  61   1.0000      -0.342838        -9.3291
  62   1.0000      -0.339890        -9.2489
  63   1.0000      -0.330675        -8.9981
  64   1.0000      -0.328704        -8.9445
  65   1.0000      -0.325286        -8.8515
  66   1.0000      -0.325123        -8.8470
  67   1.0000      -0.321892        -8.7591
  68   1.0000      -0.321622        -8.7518
  69   1.0000      -0.320235        -8.7140
  70   1.0000      -0.310397        -8.4463
  71   1.0000      -0.280390        -7.6298
  72   1.0000      -0.277510        -7.5514
  73   1.0000      -0.276401        -7.5213
  74   1.0000      -0.246875        -6.7178
  75   1.0000      -0.220712        -6.0059
  76   0.0000      -0.054168        -1.4740
  77   0.0000      -0.051079        -1.3899
  78   0.0000      -0.006505        -0.1770
  79   0.0000       0.018482         0.5029
  80   0.0000       0.021670         0.5897

MULLIKEN ATOMIC CHARGES AND SPIN POPULATIONS
--------------------------------------------
   0 C :   -0.538474   -0.000001
   1 C :   -0.004881    0.000020
   2 C :   -0.003822   -0.000045
   3 C :    0.387605   -0.000072
   4 C :    0.327031    0.000031
   5 C :   -0.415311    0.000002
   6 C :    0.391805    0.000040
   7 C :    0.326660    0.000351
   8 C :   -0.414539   -0.000038
   9 H :    0.135931    0.000000
  10 H :    0.136050   -0.000001
  11 C :   -0.390376   -0.000004
  12 H :    0.156040   -0.000000
  13 H :    0.156027   -0.000000
  14 C :   -0.268997   -0.000001
  15 H :    0.141984   -0.000000
  16 H :    0.142356   -0.000000
  17 C :   -0.263519    0.000000
  18 H :    0.145255   -0.000000
  19 H :    0.145360   -0.000000
  20 C :   -0.511373    0.000000
  21 H :    0.160074   -0.000000
  22 H :    0.159936   -0.000000
  23 C :   -0.403220    0.000221
  24 H :    0.158600   -0.000008
  25 H :    0.158191   -0.000008
  26 C :   -0.271629    0.001509
  27 H :    0.145869   -0.000072
  28 H :    0.144906   -0.000073
  29 C :   -0.290190   -0.001017
  30 H :    0.146256    0.000052
  31 H :    0.146192    0.000051
  32 C :   -0.288963    0.006456
  33 H :    0.148383   -0.000261
  34 H :    0.148450   -0.000262
  35 C :   -0.309593    0.069538
  36 H :    0.159315   -0.002691
  37 H :    0.159355   -0.002699
  38 C :   -0.230792   -0.073627
  39 H :    0.150489    0.011797
  40 H :    0.150466    0.011835
  41 C :   -0.436315    1.057494
  42 H :    0.168422   -0.039259
  43 H :    0.168431   -0.039259
  44 C :   -0.537030    0.000000
  45 H :    0.184366   -0.000000
  46 H :    0.184259   -0.000000
  47 H :    0.144961   -0.000000
Sum of atomic charges         :   -0.0000000

LOEWDIN ATOMIC CHARGES AND SPIN POPULATIONS
-------------------------------------------
   0 C :   -0.059906    0.000000
   1 C :   -0.029624    0.000000
   2 C :   -0.029570    0.000002
   3 C :   -0.069352    0.000001
   4 C :   -0.040678   -0.000003
   5 C :   -0.005385    0.000006
   6 C :   -0.069300    0.000019
   7 C :   -0.040878    0.000098
   8 C :   -0.005561    0.000001
   9 H :    0.061059    0.000002
  10 H :    0.060966    0.000002
  11 C :   -0.043061   -0.000000
  12 H :    0.059572   -0.000000
  13 H :    0.059551   -0.000000
  14 C :   -0.079639    0.000000
  15 H :    0.044472    0.000000
  16 H :    0.044565    0.000000
  17 C :   -0.089858    0.000000
  18 H :    0.041087    0.000000
  19 H :    0.041079    0.000000
  20 C :   -0.078718    0.000000
  21 H :    0.034053    0.000000
  22 H :    0.034061    0.000000
  23 C :   -0.042661    0.000235
  24 H :    0.059614    0.000001
  25 H :    0.059598    0.000001
  26 C :   -0.076886    0.001245
  27 H :    0.044911   -0.000009
  28 H :    0.044652   -0.000009
  29 C :   -0.081944    0.001398
  30 H :    0.044730    0.000055
  31 H :    0.044723    0.000055
  32 C :   -0.085660    0.007187
  33 H :    0.043979    0.000021
  34 H :    0.043995    0.000021
  35 C :   -0.081216    0.058492
  36 H :    0.044202    0.000093
  37 H :    0.044199    0.000096
  38 C :   -0.105721    0.011344
  39 H :    0.046990    0.009512
  40 H :    0.047001    0.009541
  41 C :   -0.047651    0.887360
  42 H :    0.025796    0.006618
  43 H :    0.025794    0.006619
  44 C :   -0.059873   -0.000003
  45 H :    0.045414    0.000000
  46 H :    0.045428    0.000000
  47 H :    0.031651    0.000000

  Mayer bond orders larger than 0.100000
B(  0-C ,  1-C ) :   2.7073 B(  0-C , 45-H ) :   0.9833 B(  1-C ,  3-C ) :   0.9086
B(  2-C ,  6-C ) :   0.9154 B(  2-C , 44-C ) :   2.7040 B(  3-C ,  4-C ) :   1.3675
B(  3-C ,  5-C ) :   0.1136 B(  3-C ,  8-C ) :   1.4157 B(  4-C ,  5-C ) :   1.4386
B(  4-C , 11-C ) :   0.9441 B(  5-C ,  6-C ) :   1.4218 B(  5-C ,  9-H ) :   0.9701
B(  6-C ,  7-C ) :   1.3570 B(  6-C ,  8-C ) :   0.1125 B(  7-C ,  8-C ) :   1.4426
B(  7-C , 23-C ) :   0.9371 B(  8-C , 10-H ) :   0.9707 B( 11-C , 12-H ) :   0.9605
B( 11-C , 13-H ) :   0.9603 B( 11-C , 14-C ) :   1.0198 B( 14-C , 15-H ) :   0.9612
B( 14-C , 16-H ) :   0.9616 B( 14-C , 17-C ) :   0.9857 B( 17-C , 18-H ) :   0.9716
B( 17-C , 19-H ) :   0.9718 B( 17-C , 20-C ) :   0.9542 B( 20-C , 21-H ) :   0.9729
B( 20-C , 22-H ) :   0.9729 B( 20-C , 47-H ) :   0.9678 B( 23-C , 24-H ) :   0.9618
B( 23-C , 25-H ) :   0.9615 B( 23-C , 26-C ) :   1.0099 B( 26-C , 27-H ) :   0.9623
B( 26-C , 28-H ) :   0.9614 B( 26-C , 29-C ) :   0.9684 B( 29-C , 30-H ) :   0.9768
B( 29-C , 31-H ) :   0.9765 B( 29-C , 32-C ) :   0.9691 B( 32-C , 33-H ) :   0.9807
B( 32-C , 34-H ) :   0.9807 B( 32-C , 35-C ) :   0.9545 B( 35-C , 36-H ) :   0.9791
B( 35-C , 37-H ) :   0.9791 B( 35-C , 38-C ) :   0.9350 B( 38-C , 39-H ) :   0.9782
B( 38-C , 40-H ) :   0.9782 B( 38-C , 41-C ) :   0.9729 B( 41-C , 42-H ) :   0.9737
B( 41-C , 43-H ) :   0.9737 B( 44-C , 46-H ) :   0.9832

FINAL SINGLE POINT ENERGY      -815.876726018380

DIPOLE MOMENT
-------------
                                X             Y             Z
Electronic contribution:     -2.08932     -10.82327      -0.11996
Nuclear contribution   :      2.07086      10.67733       0.11733
                        -----------------------------------------
Total Dipole Moment    :     -0.01846      -0.14594      -0.00263
                        -----------------------------------------
Magnitude (a.u.)       :      0.14713
Magnitude (Debye)      :      0.37397

Rotational constants in cm-1:     0.021268     0.002909     0.002573
Rotational constants in MHz :   637.584761    87.209896    77.122107

CHEMICAL SHIELDING SUMMARY (ppm)  --  Orbital contribution
----------------------------------------------------------

  Nucleus  Element    Isotropic     Anisotropy
  -------  -------  ------------   ------------
      9       H           24.292         13.023
     10       H           24.309         13.246
     12       H           29.004          5.882
     13       H           28.999          5.899
     15       H           30.203          4.744
     16       H           30.206          4.715
     18       H           30.348          6.495
     19       H           30.350          6.498
     21       H           30.958          8.090
     22       H           30.960          8.079
     24       H           29.023          6.019
     25       H           29.011          6.187
     27       H           30.218          4.734
     28       H           30.200          4.823
     30       H           30.430          4.518
     31       H           30.430          4.527
     33       H           30.457          4.285
     34       H           30.458          4.269
     36       H           30.575          4.892
     37       H           30.575          4.893
     39       H           29.590          5.959
     40       H           29.591          5.965
     42       H           27.070          5.684
     43       H           27.069          5.683
     45       H           28.514         10.605
     46       H           28.507         10.595
     47       H           30.727         10.475

                             ****ORCA TERMINATED NORMALLY****
TOTAL RUN TIME: 0 days 1 hours 17 minutes 46 seconds 546 msec
