                         Program Version 5.0.4 -  RELEASE  -
|  1> ! B3LYP EPR-II AUTOAUX
|  2> %pal nprocs 16 end
|  3> *XYZFile 0 2 opt.xyz
|  4> %EPRNMR
|  5>         GTENSOR   TRUE
|  6>         NUCLEI    = ALL H {SHIFT, AISO, ADIP, AORB}
|  7>         ORI       CenterOfElCharge
|  8> END
|  9>
| 10>                          ****END OF INPUT****

CARTESIAN COORDINATES (ANGSTROEM)
---------------------------------
  C     -4.033095    0.125995   -0.120550
  C     -2.818554    0.064283   -0.113733
  C      2.844701   -0.087698   -0.094014
  C     -1.387308    0.001670   -0.109120
  C     -0.717415   -1.248577   -0.131387
  C      0.677891   -1.227304   -0.125201
  C      1.413450   -0.025455   -0.098238
  C      0.743520    1.224786   -0.076040
  C     -0.651774    1.203497   -0.082207
  H      1.237515   -2.162251   -0.141592
  H     -1.211574    2.138326   -0.066066
  C     -1.519082   -2.535740   -0.160319
  H     -2.193391   -2.502424   -1.035822
  H     -2.198917   -2.538057    0.711570
  C     -0.725170   -3.844428   -0.184263
  H     -0.057419   -3.863303   -1.065313
  H     -0.067448   -3.901298    0.702698
  C     -1.630154   -5.082043   -0.216172
  H     -2.302557   -5.063679    0.661573
  H     -2.289170   -5.027876   -1.102556
  C     -0.849650   -6.398680   -0.237162
  H     -0.209987   -6.499597    0.656655
  H     -0.192325   -6.460562   -1.121673
  C      1.544976    2.512262   -0.046310
  H      2.211265    2.483799    0.835489
  H      2.232417    2.510877   -0.912033
  C      0.748806    3.819980   -0.035637
  H      0.094974    3.867835   -0.925718
  H      0.077234    3.843479    0.842094
  C      1.650750    5.059985   -0.009203
  H      2.308780    5.015134    0.879125
  H      2.325397    5.040432   -0.885895
  C      0.871144    6.379748    0.002295
  H      0.196174    6.397851    0.879166
  H      0.212832    6.422731   -0.886310
  C      1.768137    7.622332    0.028249
  H      2.440869    7.614214   -0.849002
  H      2.424364    7.589422    0.917345
  C      0.965992    8.948773    0.039424
  H      0.313046    8.962787   -0.853435
  H      0.295262    8.937141    0.919053
  C      1.821040   10.171631    0.065838
  H      2.200965   10.570215    1.010891
  H      2.218733   10.598274   -0.859437
  C      4.059287   -0.148837   -0.092234
  H     -5.104117    0.181270   -0.124553
  H      5.130370   -0.203000   -0.089533
  H     -1.525743   -7.268664   -0.263008

 Total Charge           Charge          ....    0
 Multiplicity           Mult            ....    2
 Number of Electrons    NEL             ....  153
 Basis Dimension        Dim             ....  546

ORBITAL ENERGIES
----------------
                 SPIN UP ORBITALS
  NO   OCC          E(Eh)            E(eV)
   0   1.0000     -10.223300      -278.1901
   1   1.0000     -10.223282      -278.1897
   2   1.0000     -10.211542      -277.8702
   3   1.0000     -10.211523      -277.8697
   4   1.0000     -10.206303      -277.7276
   5   1.0000     -10.206294      -277.7274
   6   1.0000     -10.199891      -277.5532
   7   1.0000     -10.199871      -277.5526
   8   1.0000     -10.198103      -277.5045
   9   1.0000     -10.198098      -277.5044
  10   1.0000     -10.188911      -277.2544
  11   1.0000     -10.188591      -277.2456
  12   1.0000     -10.188304      -277.2378
  13   1.0000     -10.185868      -277.1716
  14   1.0000     -10.183476      -277.1065
  15   1.0000     -10.182884      -277.0904
  16   1.0000     -10.182493      -277.0797
  17   1.0000     -10.182419      -277.0777
  18   1.0000     -10.181077      -277.0412
  19   1.0000     -10.180218      -277.0178
  20   1.0000     -10.173291      -276.8293
  21   1.0000      -0.874863       -23.8062
  22   1.0000      -0.818424       -22.2704
  23   1.0000      -0.804694       -21.8968
  24   1.0000      -0.794946       -21.6316
  25   1.0000      -0.784130       -21.3373
  26   1.0000      -0.761688       -20.7266
  27   1.0000      -0.753896       -20.5146
  28   1.0000      -0.732095       -19.9213
  29   1.0000      -0.722158       -19.6509
  30   1.0000      -0.705301       -19.1922
  31   1.0000      -0.669688       -18.2231
  32   1.0000      -0.642377       -17.4800
  33   1.0000      -0.636398       -17.3173
  34   1.0000      -0.610381       -16.6093
  35   1.0000      -0.589384       -16.0380
  36   1.0000      -0.577131       -15.7045
  37   1.0000      -0.570728       -15.5303
  38   1.0000      -0.563106       -15.3229
  39   1.0000      -0.543697       -14.7947
  40   1.0000      -0.526669       -14.3314
  41   1.0000      -0.499836       -13.6012
  42   1.0000      -0.485544       -13.2123
  43   1.0000      -0.480835       -13.0842
  44   1.0000      -0.475858       -12.9488
  45   1.0000      -0.470277       -12.7969
  46   1.0000      -0.460302       -12.5254
  47   1.0000      -0.430842       -11.7238
  48   1.0000      -0.428362       -11.6563
  49   1.0000      -0.426711       -11.6114
  50   1.0000      -0.420130       -11.4323
  51   1.0000      -0.419767       -11.4224
  52   1.0000      -0.412299       -11.2192
  53   1.0000      -0.401857       -10.9351
  54   1.0000      -0.392157       -10.6711
  55   1.0000      -0.388844       -10.5810
  56   1.0000      -0.373890       -10.1741
  57   1.0000      -0.373155       -10.1541
  58   1.0000      -0.363073        -9.8797
  59   1.0000      -0.359327        -9.7778
  60   1.0000      -0.354009        -9.6331
  61   1.0000      -0.342304        -9.3146
  62   1.0000      -0.341448        -9.2913
  63   1.0000      -0.330200        -8.9852
  64   1.0000      -0.329452        -8.9649
  65   1.0000      -0.326425        -8.8825
  66   1.0000      -0.323235        -8.7957
  67   1.0000      -0.323176        -8.7941
  68   1.0000      -0.320265        -8.7149
  69   1.0000      -0.318420        -8.6646
  70   1.0000      -0.316399        -8.6096
  71   1.0000      -0.281118        -7.6496
  72   1.0000      -0.278178        -7.5696
  73   1.0000      -0.276976        -7.5369
  74   1.0000      -0.246819        -6.7163
  75   1.0000      -0.220900        -6.0110
  76   1.0000      -0.198988        -5.4148
  77   0.0000      -0.053619        -1.4590
  78   0.0000      -0.005586        -0.1520
  79   0.0000       0.018597         0.5061
  80   0.0000       0.021250         0.5782
  81   0.0000       0.023923         0.6510

                 SPIN DOWN ORBITALS
  NO   OCC          E(Eh)            E(eV)
   0   1.0000     -10.223299      -278.1901
   1   1.0000     -10.223282      -278.1897
   2   1.0000     -10.211539      -277.8701
   3   1.0000     -10.211523      -277.8697
   4   1.0000     -10.206303      -277.7276
   5   1.0000     -10.206294      -277.7274
   6   1.0000     -10.199891      -277.5532
   7   1.0000     -10.199871      -277.5526
   8   1.0000     -10.198103      -277.5045
   9   1.0000     -10.198098      -277.5044
  10   1.0000     -10.188584      -277.2455
  11   1.0000     -10.188304      -277.2378
  12   1.0000     -10.186727      -277.1949
  13   1.0000     -10.183440      -277.1055
  14   1.0000     -10.182884      -277.0904
  15   1.0000     -10.182492      -277.0797
  16   1.0000     -10.181045      -277.0403
  17   1.0000     -10.180857      -277.0352
  18   1.0000     -10.180028      -277.0126
  19   1.0000     -10.175123      -276.8792
  20   1.0000     -10.173291      -276.8293
  21   1.0000      -0.874861       -23.8062
  22   1.0000      -0.818296       -22.2670
  23   1.0000      -0.802936       -21.8490
  24   1.0000      -0.794914       -21.6307
  25   1.0000      -0.781152       -21.2562
  26   1.0000      -0.759148       -20.6575
  27   1.0000      -0.753287       -20.4980
  28   1.0000      -0.728340       -19.8191
  29   1.0000      -0.722098       -19.6493
  30   1.0000      -0.701589       -19.0912
  31   1.0000      -0.664155       -18.0726
  32   1.0000      -0.641659       -17.4604
  33   1.0000      -0.633090       -17.2273
  34   1.0000      -0.605784       -16.4842
  35   1.0000      -0.586117       -15.9490
  36   1.0000      -0.575401       -15.6574
  37   1.0000      -0.565926       -15.3996
  38   1.0000      -0.559295       -15.2192
  39   1.0000      -0.543693       -14.7946
  40   1.0000      -0.526646       -14.3308
  41   1.0000      -0.499809       -13.6005
  42   1.0000      -0.485540       -13.2122
  43   1.0000      -0.480034       -13.0624
  44   1.0000      -0.475806       -12.9473
  45   1.0000      -0.470270       -12.7967
  46   1.0000      -0.458040       -12.4639
  47   1.0000      -0.430694       -11.7198
  48   1.0000      -0.425959       -11.5909
  49   1.0000      -0.425852       -11.5880
  50   1.0000      -0.419290       -11.4094
  51   1.0000      -0.418972       -11.4008
  52   1.0000      -0.410120       -11.1599
  53   1.0000      -0.398929       -10.8554
  54   1.0000      -0.390232       -10.6188
  55   1.0000      -0.386118       -10.5068
  56   1.0000      -0.372145       -10.1266
  57   1.0000      -0.371069       -10.0973
  58   1.0000      -0.361004        -9.8234
  59   1.0000      -0.358765        -9.7625
  60   1.0000      -0.353214        -9.6114
  61   1.0000      -0.340672        -9.2702
  62   1.0000      -0.339974        -9.2512
  63   1.0000      -0.329809        -8.9746
  64   1.0000      -0.328955        -8.9513
  65   1.0000      -0.325919        -8.8687
  66   1.0000      -0.322738        -8.7821
  67   1.0000      -0.322627        -8.7791
  68   1.0000      -0.320085        -8.7100
  69   1.0000      -0.317960        -8.6521
  70   1.0000      -0.312513        -8.5039
  71   1.0000      -0.281118        -7.6496
  72   1.0000      -0.278178        -7.5696
  73   1.0000      -0.276960        -7.5365
  74   1.0000      -0.246818        -6.7163
  75   1.0000      -0.220899        -6.0110
  76   0.0000      -0.053618        -1.4590
  77   0.0000      -0.051333        -1.3969
  78   0.0000      -0.005585        -0.1520
  79   0.0000       0.018611         0.5064
  80   0.0000       0.021273         0.5789

MULLIKEN ATOMIC CHARGES AND SPIN POPULATIONS
--------------------------------------------
   0 C :   -0.543523   -0.000002
   1 C :    0.001277    0.000020
   2 C :    0.002346   -0.000041
   3 C :    0.389853   -0.000073
   4 C :    0.335914    0.000032
   5 C :   -0.420902    0.000001
   6 C :    0.394310    0.000034
   7 C :    0.335637    0.000358
   8 C :   -0.419945   -0.000037
   9 H :    0.133991    0.000000
  10 H :    0.134138   -0.000000
  11 C :   -0.388235   -0.000004
  12 H :    0.153380   -0.000000
  13 H :    0.153434   -0.000000
  14 C :   -0.263442   -0.000001
  15 H :    0.139174   -0.000000
  16 H :    0.139266   -0.000000
  17 C :   -0.254646    0.000000
  18 H :    0.142241   -0.000000
  19 H :    0.142386   -0.000000
  20 C :   -0.508527    0.000000
  21 H :    0.157896   -0.000000
  22 H :    0.157762    0.000000
  23 C :   -0.401612    0.000204
  24 H :    0.156014   -0.000007
  25 H :    0.155601   -0.000007
  26 C :   -0.264856    0.001494
  27 H :    0.142723   -0.000073
  28 H :    0.141962   -0.000073
  29 C :   -0.283785   -0.001075
  30 H :    0.142944    0.000055
  31 H :    0.143015    0.000056
  32 C :   -0.282439    0.006418
  33 H :    0.145138   -0.000268
  34 H :    0.145213   -0.000268
  35 C :   -0.303200    0.069757
  36 H :    0.155969   -0.002746
  37 H :    0.155955   -0.002755
  38 C :   -0.223242   -0.073587
  39 H :    0.147403    0.012381
  40 H :    0.147365    0.012452
  41 C :   -0.433224    1.057057
  42 H :    0.166025   -0.039649
  43 H :    0.166024   -0.039652
  44 C :   -0.542027   -0.000000
  45 H :    0.183023   -0.000000
  46 H :    0.182912   -0.000000
  47 H :    0.143316   -0.000000
Sum of atomic charges         :   -0.0000000

LOEWDIN ATOMIC CHARGES AND SPIN POPULATIONS
-------------------------------------------
   0 C :   -0.061598    0.000000
   1 C :   -0.030820    0.000000
   2 C :   -0.030751    0.000002
   3 C :   -0.070136    0.000000
   4 C :   -0.042397   -0.000003
   5 C :   -0.006778    0.000006
   6 C :   -0.070080    0.000019
   7 C :   -0.042593    0.000095
   8 C :   -0.006944    0.000001
   9 H :    0.063495    0.000002
  10 H :    0.063407    0.000002
  11 C :   -0.047290   -0.000000
  12 H :    0.062073   -0.000000
  13 H :    0.062065   -0.000000
  14 C :   -0.084554    0.000000
  15 H :    0.046937    0.000000
  16 H :    0.046974    0.000000
  17 C :   -0.095800    0.000000
  18 H :    0.043689    0.000000
  19 H :    0.043684    0.000000
  20 C :   -0.084910    0.000000
  21 H :    0.036422    0.000000
  22 H :    0.036434    0.000000
  23 C :   -0.046779    0.000230
  24 H :    0.062087    0.000001
  25 H :    0.062092    0.000001
  26 C :   -0.081652    0.001231
  27 H :    0.047294   -0.000011
  28 H :    0.047083   -0.000011
  29 C :   -0.086953    0.001372
  30 H :    0.047178    0.000057
  31 H :    0.047180    0.000058
  32 C :   -0.090843    0.007194
  33 H :    0.046454    0.000012
  34 H :    0.046479    0.000012
  35 C :   -0.086577    0.058622
  36 H :    0.046765    0.000012
  37 H :    0.046764    0.000015
  38 C :   -0.111817    0.012489
  39 H :    0.049687    0.009992
  40 H :    0.049698    0.010051
  41 C :   -0.052869    0.887252
  42 H :    0.028951    0.005649
  43 H :    0.028944    0.005649
  44 C :   -0.061556   -0.000002
  45 H :    0.048974    0.000000
  46 H :    0.048991    0.000000
  47 H :    0.033898    0.000000

  Mayer bond orders larger than 0.100000
B(  0-C ,  1-C ) :   2.7013 B(  0-C , 45-H ) :   0.9842 B(  1-C ,  3-C ) :   0.9121
B(  2-C ,  6-C ) :   0.9190 B(  2-C , 44-C ) :   2.6980 B(  3-C ,  4-C ) :   1.3699
B(  3-C ,  5-C ) :   0.1166 B(  3-C ,  8-C ) :   1.4177 B(  4-C ,  5-C ) :   1.4379
B(  4-C , 11-C ) :   0.9443 B(  5-C ,  6-C ) :   1.4236 B(  5-C ,  9-H ) :   0.9713
B(  6-C ,  7-C ) :   1.3594 B(  6-C ,  8-C ) :   0.1157 B(  7-C ,  8-C ) :   1.4418
B(  7-C , 23-C ) :   0.9374 B(  8-C , 10-H ) :   0.9720 B( 11-C , 12-H ) :   0.9603
B( 11-C , 13-H ) :   0.9602 B( 11-C , 14-C ) :   1.0212 B( 14-C , 15-H ) :   0.9605
B( 14-C , 16-H ) :   0.9606 B( 14-C , 17-C ) :   0.9876 B( 17-C , 18-H ) :   0.9711
B( 17-C , 19-H ) :   0.9712 B( 17-C , 20-C ) :   0.9539 B( 20-C , 21-H ) :   0.9729
B( 20-C , 22-H ) :   0.9728 B( 20-C , 47-H ) :   0.9676 B( 23-C , 24-H ) :   0.9618
B( 23-C , 25-H ) :   0.9614 B( 23-C , 26-C ) :   1.0112 B( 26-C , 27-H ) :   0.9612
B( 26-C , 28-H ) :   0.9606 B( 26-C , 29-C ) :   0.9704 B( 29-C , 30-H ) :   0.9760
B( 29-C , 31-H ) :   0.9758 B( 29-C , 32-C ) :   0.9714 B( 32-C , 33-H ) :   0.9802
B( 32-C , 34-H ) :   0.9801 B( 32-C , 35-C ) :   0.9561 B( 35-C , 36-H ) :   0.9788
B( 35-C , 37-H ) :   0.9788 B( 35-C , 38-C ) :   0.9366 B( 38-C , 39-H ) :   0.9776
B( 38-C , 40-H ) :   0.9776 B( 38-C , 41-C ) :   0.9742 B( 41-C , 42-H ) :   0.9734
B( 41-C , 43-H ) :   0.9734 B( 44-C , 46-H ) :   0.9841

FINAL SINGLE POINT ENERGY      -815.875538932941

DIPOLE MOMENT
-------------
                                X             Y             Z
Electronic contribution:     -2.06904     -10.78802      -0.12363
Nuclear contribution   :      2.05355      10.64022       0.12095
                        -----------------------------------------
Total Dipole Moment    :     -0.01549      -0.14780      -0.00267
                        -----------------------------------------
Magnitude (a.u.)       :      0.14863
Magnitude (Debye)      :      0.37779

Rotational constants in cm-1:     0.021354     0.002920     0.002583
Rotational constants in MHz :   640.175430    87.546244    77.426582

CHEMICAL SHIELDING SUMMARY (ppm)  --  Orbital contribution
----------------------------------------------------------

  Nucleus  Element    Isotropic     Anisotropy
  -------  -------  ------------   ------------
      9       H           27.766          8.887
     10       H           89.390         24.617
     12       H           40.721         28.583
     13       H           40.383         28.748
     15       H           63.626         13.892
     16       H           63.095         14.043
     18       H           10.652         21.699
     19       H           11.096         21.644
     21       H           11.958         14.773
     22       H           12.697         14.528
     24       H           72.445         39.879
     25       H           72.713         39.789
     27       H           92.142         12.698
     28       H           91.784         12.763
     30       H           57.684         14.765
     31       H           57.987         14.676
     33       H           75.046          6.222
     34       H           75.370          6.129
     36       H           38.724         14.150
     37       H           38.407         14.243
     39       H           45.581          7.736
     40       H           45.363          7.784
     42       H          -67.069         16.239
     43       H          -66.956         16.229
     45       H          -50.919          7.834
     46       H          -42.377          2.969
     47       H          -93.717         10.583

                             ****ORCA TERMINATED NORMALLY****
TOTAL RUN TIME: 0 days 1 hours 17 minutes 40 seconds 982 msec
