                         Program Version 5.0.4 -  RELEASE  -
|  1> ! B3LYP cc-pVDZ OPT
|  2> %pal nprocs 16 end
|  3> *XYZFile 0 2 model.xyz
|  4>
|  5>                          ****END OF INPUT****
 Total Charge           Charge          ....    0
 Multiplicity           Mult            ....    2
 Number of Electrons    NEL             ....  153
FINAL SINGLE POINT ENERGY      -815.786311189295
FINAL SINGLE POINT ENERGY      -815.792331319602
FINAL SINGLE POINT ENERGY      -815.795244487541
FINAL SINGLE POINT ENERGY      -815.796250604016
FINAL SINGLE POINT ENERGY      -815.796578190941
FINAL SINGLE POINT ENERGY      -815.796642030035
FINAL SINGLE POINT ENERGY      -815.796652652192
FINAL SINGLE POINT ENERGY      -815.796655732567
                    ***********************HURRAY********************

CARTESIAN COORDINATES (ANGSTROEM)
---------------------------------
  C     -4.033095    0.125995   -0.120550
  C     -2.818554    0.064283   -0.113733
  C      2.844701   -0.087698   -0.094014
  C     -1.387308    0.001670   -0.109120
  C     -0.717415   -1.248577   -0.131387
  C      0.677891   -1.227304   -0.125201
  C      1.413450   -0.025455   -0.098238
  C      0.743520    1.224786   -0.076040
  C     -0.651774    1.203497   -0.082207
  H      1.237515   -2.162251   -0.141592
  H     -1.211574    2.138326   -0.066066
  C     -1.519082   -2.535740   -0.160319
  H     -2.193391   -2.502424   -1.035822
  H     -2.198917   -2.538057    0.711570
  C     -0.725170   -3.844428   -0.184263
  H     -0.057419   -3.863303   -1.065313
  H     -0.067448   -3.901298    0.702698
  C     -1.630154   -5.082043   -0.216172
  H     -2.302557   -5.063679    0.661573
  H     -2.289170   -5.027876   -1.102556
  C     -0.849650   -6.398680   -0.237162
  H     -0.209987   -6.499597    0.656655
  H     -0.192325   -6.460562   -1.121673
  C      1.544976    2.512262   -0.046310
  H      2.211265    2.483799    0.835489
  H      2.232417    2.510877   -0.912033
  C      0.748806    3.819980   -0.035637
  H      0.094974    3.867835   -0.925718
  H      0.077234    3.843479    0.842094
  C      1.650750    5.059985   -0.009203
  H      2.308780    5.015134    0.879125
  H      2.325397    5.040432   -0.885895
  C      0.871144    6.379748    0.002295
  H      0.196174    6.397851    0.879166
  H      0.212832    6.422731   -0.886310
  C      1.768137    7.622332    0.028249
  H      2.440869    7.614214   -0.849002
  H      2.424364    7.589422    0.917345
  C      0.965992    8.948773    0.039424
  H      0.313046    8.962787   -0.853435
  H      0.295262    8.937141    0.919053
  C      1.821040   10.171631    0.065838
  H      2.200965   10.570215    1.010891
  H      2.218733   10.598274   -0.859437
  C      4.059287   -0.148837   -0.092234
  H     -5.104117    0.181270   -0.124553
  H      5.130370   -0.203000   -0.089533
  H     -1.525743   -7.268664   -0.263008

 Multiplicity           Mult            ....    2
 Number of Electrons    NEL             ....  153
 Basis Dimension        Dim             ....  429

ORBITAL ENERGIES
----------------
                 SPIN UP ORBITALS
  NO   OCC          E(Eh)            E(eV)
   0   1.0000     -10.212652      -277.9004
   1   1.0000     -10.212620      -277.8995
   2   1.0000     -10.201855      -277.6066
   3   1.0000     -10.201788      -277.6048
   4   1.0000     -10.192435      -277.3503
   5   1.0000     -10.192386      -277.3489
   6   1.0000     -10.191978      -277.3378
   7   1.0000     -10.191967      -277.3375
   8   1.0000     -10.187358      -277.2121
   9   1.0000     -10.187122      -277.2057
  10   1.0000     -10.187119      -277.2056
  11   1.0000     -10.186974      -277.2017
  12   1.0000     -10.185972      -277.1744
  13   1.0000     -10.184105      -277.1236
  14   1.0000     -10.182798      -277.0880
  15   1.0000     -10.182022      -277.0669
  16   1.0000     -10.181760      -277.0598
  17   1.0000     -10.181755      -277.0596
  18   1.0000     -10.180598      -277.0282
  19   1.0000     -10.179653      -277.0024
  20   1.0000     -10.175653      -276.8936
  21   1.0000      -0.874857       -23.8061
  22   1.0000      -0.819355       -22.2958
  23   1.0000      -0.806455       -21.9448
  24   1.0000      -0.795343       -21.6424
  25   1.0000      -0.785566       -21.3763
  26   1.0000      -0.762991       -20.7620
  27   1.0000      -0.751997       -20.4629
  28   1.0000      -0.733474       -19.9588
  29   1.0000      -0.720460       -19.6047
  30   1.0000      -0.706534       -19.2258
  31   1.0000      -0.670971       -18.2580
  32   1.0000      -0.642033       -17.4706
  33   1.0000      -0.636777       -17.3276
  34   1.0000      -0.611136       -16.6299
  35   1.0000      -0.589680       -16.0460
  36   1.0000      -0.578028       -15.7289
  37   1.0000      -0.571460       -15.5502
  38   1.0000      -0.563406       -15.3311
  39   1.0000      -0.541873       -14.7451
  40   1.0000      -0.525189       -14.2911
  41   1.0000      -0.498919       -13.5763
  42   1.0000      -0.484330       -13.1793
  43   1.0000      -0.481201       -13.0942
  44   1.0000      -0.476140       -12.9564
  45   1.0000      -0.470472       -12.8022
  46   1.0000      -0.460084       -12.5195
  47   1.0000      -0.430513       -11.7149
  48   1.0000      -0.427995       -11.6463
  49   1.0000      -0.427635       -11.6366
  50   1.0000      -0.421284       -11.4637
  51   1.0000      -0.419646       -11.4191
  52   1.0000      -0.412940       -11.2367
  53   1.0000      -0.403139       -10.9700
  54   1.0000      -0.391834       -10.6624
  55   1.0000      -0.389212       -10.5910
  56   1.0000      -0.374820       -10.1994
  57   1.0000      -0.372852       -10.1458
  58   1.0000      -0.363410        -9.8889
  59   1.0000      -0.359705        -9.7881
  60   1.0000      -0.353773        -9.6267
  61   1.0000      -0.343043        -9.3347
  62   1.0000      -0.341166        -9.2836
  63   1.0000      -0.330302        -8.9880
  64   1.0000      -0.329670        -8.9708
  65   1.0000      -0.327328        -8.9071
  66   1.0000      -0.324284        -8.8242
  67   1.0000      -0.323513        -8.8032
  68   1.0000      -0.320324        -8.7165
  69   1.0000      -0.319149        -8.6845
  70   1.0000      -0.317890        -8.6502
  71   1.0000      -0.279311        -7.6004
  72   1.0000      -0.276040        -7.5114
  73   1.0000      -0.274954        -7.4819
  74   1.0000      -0.246238        -6.7005
  75   1.0000      -0.219244        -5.9659
  76   1.0000      -0.198821        -5.4102
  77   0.0000      -0.050734        -1.3806
  78   0.0000      -0.003025        -0.0823
  79   0.0000       0.040768         1.1094
  80   0.0000       0.047794         1.3005
  81   0.0000       0.050182         1.3655

                 SPIN DOWN ORBITALS
  NO   OCC          E(Eh)            E(eV)
   0   1.0000     -10.212652      -277.9004
   1   1.0000     -10.212620      -277.8995
   2   1.0000     -10.201853      -277.6065
   3   1.0000     -10.201788      -277.6048
   4   1.0000     -10.192435      -277.3503
   5   1.0000     -10.192386      -277.3489
   6   1.0000     -10.191978      -277.3378
   7   1.0000     -10.191967      -277.3375
   8   1.0000     -10.187352      -277.2119
   9   1.0000     -10.187122      -277.2057
  10   1.0000     -10.187119      -277.2056
  11   1.0000     -10.186974      -277.2017
  12   1.0000     -10.184997      -277.1479
  13   1.0000     -10.182763      -277.0871
  14   1.0000     -10.182022      -277.0669
  15   1.0000     -10.181755      -277.0596
  16   1.0000     -10.180563      -277.0272
  17   1.0000     -10.180197      -277.0172
  18   1.0000     -10.179463      -276.9973
  19   1.0000     -10.175653      -276.8936
  20   1.0000     -10.171901      -276.7915
  21   1.0000      -0.874854       -23.8060
  22   1.0000      -0.819181       -22.2911
  23   1.0000      -0.804691       -21.8968
  24   1.0000      -0.795343       -21.6424
  25   1.0000      -0.782569       -21.2948
  26   1.0000      -0.760352       -20.6902
  27   1.0000      -0.751475       -20.4487
  28   1.0000      -0.729743       -19.8573
  29   1.0000      -0.720364       -19.6021
  30   1.0000      -0.702804       -19.1243
  31   1.0000      -0.665340       -18.1048
  32   1.0000      -0.640909       -17.4400
  33   1.0000      -0.633847       -17.2479
  34   1.0000      -0.606373       -16.5002
  35   1.0000      -0.586552       -15.9609
  36   1.0000      -0.576407       -15.6848
  37   1.0000      -0.566226       -15.4078
  38   1.0000      -0.559365       -15.2211
  39   1.0000      -0.541870       -14.7450
  40   1.0000      -0.525163       -14.2904
  41   1.0000      -0.498892       -13.5755
  42   1.0000      -0.484324       -13.1791
  43   1.0000      -0.480430       -13.0732
  44   1.0000      -0.476087       -12.9550
  45   1.0000      -0.470465       -12.8020
  46   1.0000      -0.457884       -12.4597
  47   1.0000      -0.430240       -11.7074
  48   1.0000      -0.426878       -11.6159
  49   1.0000      -0.425631       -11.5820
  50   1.0000      -0.419986       -11.4284
  51   1.0000      -0.419124       -11.4049
  52   1.0000      -0.410914       -11.1815
  53   1.0000      -0.400122       -10.8879
  54   1.0000      -0.389880       -10.6092
  55   1.0000      -0.386558       -10.5188
  56   1.0000      -0.371974       -10.1219
  57   1.0000      -0.371820       -10.1177
  58   1.0000      -0.361392        -9.8340
  59   1.0000      -0.359098        -9.7715
  60   1.0000      -0.352957        -9.6045
  61   1.0000      -0.340702        -9.2710
  62   1.0000      -0.340380        -9.2622
  63   1.0000      -0.329637        -8.9699
  64   1.0000      -0.329239        -8.9591
  65   1.0000      -0.326937        -8.8964
  66   1.0000      -0.323622        -8.8062
  67   1.0000      -0.323098        -8.7920
  68   1.0000      -0.319979        -8.7071
  69   1.0000      -0.318806        -8.6752
  70   1.0000      -0.314214        -8.5502
  71   1.0000      -0.279311        -7.6004
  72   1.0000      -0.276039        -7.5114
  73   1.0000      -0.274941        -7.4815
  74   1.0000      -0.246238        -6.7005
  75   1.0000      -0.219243        -5.9659
  76   0.0000      -0.050734        -1.3805
  77   0.0000      -0.044999        -1.2245
  78   0.0000      -0.003024        -0.0823
  79   0.0000       0.040769         1.1094
  80   0.0000       0.047794         1.3006

MULLIKEN ATOMIC CHARGES AND SPIN POPULATIONS
--------------------------------------------
   0 C :   -0.605023    0.000000
   1 C :    0.627351   -0.000001
   2 C :    0.627331    0.000003
   3 C :   -0.039158    0.000002
   4 C :   -0.064246   -0.000005
   5 C :    0.021021    0.000008
   6 C :   -0.037976    0.000010
   7 C :   -0.063749    0.000104
   8 C :    0.022457   -0.000008
   9 H :   -0.051301    0.000003
  10 H :   -0.051398   -0.000001
  11 C :    0.042976    0.000000
  12 H :    0.031492   -0.000000
  13 H :    0.031522   -0.000000
  14 C :   -0.036311    0.000000
  15 H :    0.016358   -0.000000
  16 H :    0.016198   -0.000000
  17 C :   -0.023832    0.000000
  18 H :    0.005934    0.000000
  19 H :    0.005933    0.000000
  20 C :    0.003800   -0.000000
  21 H :    0.017020    0.000000
  22 H :    0.016916    0.000000
  23 C :    0.048517    0.000269
  24 H :    0.031944   -0.000007
  25 H :    0.031802   -0.000006
  26 C :   -0.035457    0.001321
  27 H :    0.016355   -0.000040
  28 H :    0.016658   -0.000039
  29 C :    0.015210    0.000812
  30 H :    0.003336   -0.000025
  31 H :    0.003383   -0.000025
  32 C :   -0.005954    0.010051
  33 H :    0.001865   -0.000240
  34 H :    0.001897   -0.000241
  35 C :    0.000420    0.049459
  36 H :    0.003394    0.000564
  37 H :    0.003343    0.000559
  38 C :   -0.000810   -0.065390
  39 H :    0.010471    0.013343
  40 H :    0.010453    0.013413
  41 C :   -0.068057    1.056784
  42 H :    0.024701   -0.040334
  43 H :    0.024692   -0.040340
  44 C :   -0.605109   -0.000003
  45 H :   -0.029483   -0.000000
  46 H :   -0.029463    0.000000
  47 H :    0.012581    0.000000
Sum of atomic charges         :    0.0000000

LOEWDIN ATOMIC CHARGES AND SPIN POPULATIONS
-------------------------------------------
   0 C :   -0.050460    0.000000
   1 C :   -0.001653   -0.000000
   2 C :   -0.001684    0.000002
   3 C :   -0.051645    0.000000
   4 C :   -0.006263   -0.000003
   5 C :   -0.004001    0.000008
   6 C :   -0.051628    0.000021
   7 C :   -0.006425    0.000094
   8 C :   -0.004156    0.000001
   9 H :    0.030226    0.000002
  10 H :    0.030177    0.000002
  11 C :   -0.033879   -0.000000
  12 H :    0.039356   -0.000000
  13 H :    0.039380   -0.000000
  14 C :   -0.043699    0.000000
  15 H :    0.024340    0.000000
  16 H :    0.024339    0.000000
  17 C :   -0.046928    0.000000
  18 H :    0.024161    0.000000
  19 H :    0.024165    0.000000
  20 C :   -0.067491    0.000000
  21 H :    0.025177    0.000000
  22 H :    0.025168    0.000000
  23 C :   -0.033370    0.000245
  24 H :    0.039414   -0.000000
  25 H :    0.039341   -0.000000
  26 C :   -0.042217    0.001189
  27 H :    0.024551    0.000001
  28 H :    0.024498    0.000001
  29 C :   -0.039120    0.001490
  30 H :    0.023120    0.000030
  31 H :    0.023141    0.000031
  32 C :   -0.043147    0.007227
  33 H :    0.022232    0.000084
  34 H :    0.022256    0.000084
  35 C :   -0.037379    0.050400
  36 H :    0.021856    0.001107
  37 H :    0.021840    0.001108
  38 C :   -0.068201    0.010478
  39 H :    0.029316    0.010153
  40 H :    0.029314    0.010212
  41 C :   -0.015824    0.898234
  42 H :    0.009642    0.003901
  43 H :    0.009638    0.003901
  44 C :   -0.050399   -0.000003
  45 H :    0.022717   -0.000000
  46 H :    0.022734   -0.000000
  47 H :    0.027470    0.000000

  Mayer bond orders larger than 0.100000
B(  0-C ,  1-C ) :   2.1185 B(  0-C , 45-H ) :   1.1191 B(  1-C ,  3-C ) :   0.9085
B(  2-C ,  6-C ) :   0.9076 B(  2-C , 44-C ) :   2.1184 B(  3-C ,  4-C ) :   1.3967
B(  3-C ,  8-C ) :   1.3723 B(  4-C ,  5-C ) :   1.4265 B(  4-C , 11-C ) :   1.0905
B(  5-C ,  6-C ) :   1.3732 B(  5-C ,  9-H ) :   0.9214 B(  6-C ,  7-C ) :   1.3972
B(  7-C ,  8-C ) :   1.4264 B(  7-C , 23-C ) :   1.0895 B(  8-C , 10-H ) :   0.9220
B( 11-C , 12-H ) :   0.8982 B( 11-C , 13-H ) :   0.8980 B( 11-C , 14-C ) :   1.1041
B( 14-C , 15-H ) :   0.9293 B( 14-C , 16-H ) :   0.9293 B( 14-C , 17-C ) :   1.0752
B( 17-C , 18-H ) :   0.9410 B( 17-C , 19-H ) :   0.9410 B( 17-C , 20-C ) :   1.1059
B( 20-C , 21-H ) :   0.9663 B( 20-C , 22-H ) :   0.9662 B( 20-C , 47-H ) :   0.9617
B( 23-C , 24-H ) :   0.8973 B( 23-C , 25-H ) :   0.8972 B( 23-C , 26-C ) :   1.1029
B( 26-C , 27-H ) :   0.9273 B( 26-C , 28-H ) :   0.9269 B( 26-C , 29-C ) :   1.0768
B( 29-C , 30-H ) :   0.9338 B( 29-C , 31-H ) :   0.9338 B( 29-C , 32-C ) :   1.0779
B( 32-C , 33-H ) :   0.9358 B( 32-C , 34-H ) :   0.9358 B( 32-C , 35-C ) :   1.0780
B( 35-C , 36-H ) :   0.9401 B( 35-C , 37-H ) :   0.9401 B( 35-C , 38-C ) :   1.0486
B( 38-C , 39-H ) :   0.9359 B( 38-C , 40-H ) :   0.9358 B( 38-C , 41-C ) :   1.1363
B( 41-C , 42-H ) :   0.9649 B( 41-C , 43-H ) :   0.9649 B( 44-C , 46-H ) :   1.1191

FINAL SINGLE POINT ENERGY      -815.796656735506

DIPOLE MOMENT
-------------
                                X             Y             Z
Electronic contribution:     -2.07519     -10.76997      -0.12309
Nuclear contribution   :      2.05355      10.64022       0.12095
                        -----------------------------------------
Total Dipole Moment    :     -0.02164      -0.12975      -0.00213
                        -----------------------------------------
Magnitude (a.u.)       :      0.13156
Magnitude (Debye)      :      0.33439

Rotational constants in cm-1:     0.021354     0.002920     0.002583
Rotational constants in MHz :   640.175430    87.546244    77.426582

                             ****ORCA TERMINATED NORMALLY****
TOTAL RUN TIME: 0 days 0 hours 13 minutes 58 seconds 362 msec
