                         Program Version 5.0.4 -  RELEASE  -
|  1> ! B3LYP cc-pVDZ OPT
|  2> %pal nprocs 16 end
|  3> *XYZFile 0 2 model.xyz
|  4>
|  5>                          ****END OF INPUT****
 Total Charge           Charge          ....    0
 Multiplicity           Mult            ....    2
 Number of Electrons    NEL             ....  153
FINAL SINGLE POINT ENERGY      -815.796656732240
                    ***********************HURRAY********************

CARTESIAN COORDINATES (ANGSTROEM)
---------------------------------
  C     -4.033080    0.126001   -0.121548
  C     -2.818536    0.064328   -0.114981
  C      2.844718   -0.087648   -0.095173
  C     -1.387290    0.001722   -0.110579
  C     -0.717398   -1.248535   -0.132435
  C      0.677909   -1.227259   -0.126251
  C      1.413467   -0.025401   -0.099658
  C      0.743536    1.224841   -0.077555
  C     -0.651756    1.203548   -0.083753
  H      1.237533   -2.162213   -0.142332
  H     -1.211559    2.138375   -0.067685
  C     -1.519068   -2.535706   -0.160991
  H     -2.192925   -2.502924   -1.036866
  H     -2.199353   -2.537470    0.710545
  C     -0.725160   -3.844420   -0.183718
  H     -0.057208   -3.864011   -1.064600
  H     -0.067642   -3.900582    0.703440
  C     -1.630143   -5.082054   -0.214836
  H     -2.302560   -5.063105    0.662886
  H     -2.289147   -5.028488   -1.101266
  C     -0.849633   -6.398703   -0.234918
  H     -0.209902   -6.498953    0.658925
  H     -0.192376   -6.461243   -1.119433
  C      1.544993    2.512310   -0.047940
  H      2.211758    2.483614    0.833487
  H      2.231963    2.511170   -0.914040
  C      0.748808    3.820008   -0.036456
  H      0.094729    3.868291   -0.926329
  H      0.077484    3.843063    0.841477
  C      1.650713    5.060034   -0.009632
  H      2.308710    5.014913    0.878706
  H      2.325390    5.040811   -0.886305
  C      0.871015    6.379724    0.002331
  H      0.195936    6.397406    0.879128
  H      0.212835    6.423112   -0.886352
  C      1.767957    7.622335    0.029020
  H      2.440916    7.614574   -0.848061
  H      2.423918    7.589030    0.918301
  C      0.965872    8.948839    0.040560
  H      0.313202    8.963270   -0.852497
  H      0.294853    8.936761    0.919966
  C      1.820831   10.171661    0.067843
  H      2.201274   10.569149    1.013131
  H      2.219595   10.598163   -0.857016
  C      4.059305   -0.148728   -0.093138
  H     -5.104104    0.181279   -0.125361
  H      5.130387   -0.202926   -0.090250
  H     -1.525724   -7.268710   -0.260063

 Multiplicity           Mult            ....    2
 Number of Electrons    NEL             ....  153
 Basis Dimension        Dim             ....  429

ORBITAL ENERGIES
----------------
                 SPIN UP ORBITALS
  NO   OCC          E(Eh)            E(eV)
   0   1.0000     -10.212654      -277.9004
   1   1.0000     -10.212621      -277.8995
   2   1.0000     -10.201855      -277.6066
   3   1.0000     -10.201791      -277.6048
   4   1.0000     -10.192434      -277.3502
   5   1.0000     -10.192389      -277.3490
   6   1.0000     -10.191978      -277.3378
   7   1.0000     -10.191969      -277.3376
   8   1.0000     -10.187358      -277.2121
   9   1.0000     -10.187122      -277.2057
  10   1.0000     -10.187120      -277.2056
  11   1.0000     -10.186976      -277.2017
  12   1.0000     -10.185970      -277.1743
  13   1.0000     -10.184103      -277.1235
  14   1.0000     -10.182799      -277.0881
  15   1.0000     -10.182023      -277.0669
  16   1.0000     -10.181769      -277.0600
  17   1.0000     -10.181756      -277.0597
  18   1.0000     -10.180602      -277.0283
  19   1.0000     -10.179658      -277.0026
  20   1.0000     -10.175653      -276.8936
  21   1.0000      -0.874859       -23.8061
  22   1.0000      -0.819357       -22.2958
  23   1.0000      -0.806459       -21.9449
  24   1.0000      -0.795344       -21.6424
  25   1.0000      -0.785569       -21.3764
  26   1.0000      -0.762995       -20.7621
  27   1.0000      -0.751998       -20.4629
  28   1.0000      -0.733480       -19.9590
  29   1.0000      -0.720461       -19.6047
  30   1.0000      -0.706538       -19.2259
  31   1.0000      -0.670974       -18.2581
  32   1.0000      -0.642035       -17.4707
  33   1.0000      -0.636779       -17.3276
  34   1.0000      -0.611138       -16.6299
  35   1.0000      -0.589682       -16.0461
  36   1.0000      -0.578031       -15.7290
  37   1.0000      -0.571464       -15.5503
  38   1.0000      -0.563408       -15.3311
  39   1.0000      -0.541874       -14.7451
  40   1.0000      -0.525191       -14.2912
  41   1.0000      -0.498920       -13.5763
  42   1.0000      -0.484330       -13.1793
  43   1.0000      -0.481206       -13.0943
  44   1.0000      -0.476142       -12.9565
  45   1.0000      -0.470473       -12.8022
  46   1.0000      -0.460086       -12.5196
  47   1.0000      -0.430516       -11.7149
  48   1.0000      -0.427997       -11.6464
  49   1.0000      -0.427637       -11.6366
  50   1.0000      -0.421282       -11.4637
  51   1.0000      -0.419646       -11.4192
  52   1.0000      -0.412937       -11.2366
  53   1.0000      -0.403145       -10.9701
  54   1.0000      -0.391833       -10.6623
  55   1.0000      -0.389221       -10.5912
  56   1.0000      -0.374818       -10.1993
  57   1.0000      -0.372851       -10.1458
  58   1.0000      -0.363417        -9.8891
  59   1.0000      -0.359706        -9.7881
  60   1.0000      -0.353772        -9.6266
  61   1.0000      -0.343038        -9.3345
  62   1.0000      -0.341165        -9.2836
  63   1.0000      -0.330305        -8.9881
  64   1.0000      -0.329671        -8.9708
  65   1.0000      -0.327330        -8.9071
  66   1.0000      -0.324285        -8.8243
  67   1.0000      -0.323514        -8.8033
  68   1.0000      -0.320326        -8.7165
  69   1.0000      -0.319153        -8.6846
  70   1.0000      -0.317901        -8.6505
  71   1.0000      -0.279312        -7.6005
  72   1.0000      -0.276041        -7.5114
  73   1.0000      -0.274956        -7.4819
  74   1.0000      -0.246240        -6.7005
  75   1.0000      -0.219245        -5.9660
  76   1.0000      -0.198836        -5.4106
  77   0.0000      -0.050736        -1.3806
  78   0.0000      -0.003026        -0.0823
  79   0.0000       0.040766         1.1093
  80   0.0000       0.047793         1.3005
  81   0.0000       0.050181         1.3655

                 SPIN DOWN ORBITALS
  NO   OCC          E(Eh)            E(eV)
   0   1.0000     -10.212653      -277.9004
   1   1.0000     -10.212621      -277.8995
   2   1.0000     -10.201852      -277.6065
   3   1.0000     -10.201791      -277.6048
   4   1.0000     -10.192434      -277.3502
   5   1.0000     -10.192389      -277.3490
   6   1.0000     -10.191978      -277.3378
   7   1.0000     -10.191969      -277.3376
   8   1.0000     -10.187352      -277.2119
   9   1.0000     -10.187122      -277.2057
  10   1.0000     -10.187120      -277.2056
  11   1.0000     -10.186976      -277.2017
  12   1.0000     -10.184995      -277.1478
  13   1.0000     -10.182764      -277.0871
  14   1.0000     -10.182023      -277.0669
  15   1.0000     -10.181756      -277.0597
  16   1.0000     -10.180567      -277.0273
  17   1.0000     -10.180205      -277.0175
  18   1.0000     -10.179468      -276.9974
  19   1.0000     -10.175653      -276.8936
  20   1.0000     -10.171899      -276.7914
  21   1.0000      -0.874856       -23.8060
  22   1.0000      -0.819184       -22.2911
  23   1.0000      -0.804695       -21.8969
  24   1.0000      -0.795344       -21.6424
  25   1.0000      -0.782571       -21.2948
  26   1.0000      -0.760355       -20.6903
  27   1.0000      -0.751477       -20.4487
  28   1.0000      -0.729748       -19.8575
  29   1.0000      -0.720365       -19.6021
  30   1.0000      -0.702809       -19.1244
  31   1.0000      -0.665345       -18.1050
  32   1.0000      -0.640911       -17.4401
  33   1.0000      -0.633849       -17.2479
  34   1.0000      -0.606374       -16.5003
  35   1.0000      -0.586553       -15.9609
  36   1.0000      -0.576409       -15.6849
  37   1.0000      -0.566230       -15.4079
  38   1.0000      -0.559373       -15.2213
  39   1.0000      -0.541871       -14.7450
  40   1.0000      -0.525165       -14.2905
  41   1.0000      -0.498893       -13.5756
  42   1.0000      -0.484325       -13.1792
  43   1.0000      -0.480435       -13.0733
  44   1.0000      -0.476089       -12.9550
  45   1.0000      -0.470466       -12.8020
  46   1.0000      -0.457886       -12.4597
  47   1.0000      -0.430241       -11.7075
  48   1.0000      -0.426880       -11.6160
  49   1.0000      -0.425632       -11.5820
  50   1.0000      -0.419986       -11.4284
  51   1.0000      -0.419125       -11.4050
  52   1.0000      -0.410911       -11.1815
  53   1.0000      -0.400124       -10.8879
  54   1.0000      -0.389879       -10.6091
  55   1.0000      -0.386566       -10.5190
  56   1.0000      -0.371973       -10.1219
  57   1.0000      -0.371819       -10.1177
  58   1.0000      -0.361400        -9.8342
  59   1.0000      -0.359099        -9.7716
  60   1.0000      -0.352956        -9.6044
  61   1.0000      -0.340696        -9.2708
  62   1.0000      -0.340380        -9.2622
  63   1.0000      -0.329639        -8.9699
  64   1.0000      -0.329240        -8.9591
  65   1.0000      -0.326938        -8.8964
  66   1.0000      -0.323623        -8.8062
  67   1.0000      -0.323100        -8.7920
  68   1.0000      -0.319980        -8.7071
  69   1.0000      -0.318811        -8.6753
  70   1.0000      -0.314226        -8.5505
  71   1.0000      -0.279312        -7.6005
  72   1.0000      -0.276040        -7.5114
  73   1.0000      -0.274942        -7.4816
  74   1.0000      -0.246239        -6.7005
  75   1.0000      -0.219245        -5.9659
  76   0.0000      -0.050735        -1.3806
  77   0.0000      -0.045012        -1.2248
  78   0.0000      -0.003025        -0.0823
  79   0.0000       0.040767         1.1093
  80   0.0000       0.047794         1.3005

MULLIKEN ATOMIC CHARGES AND SPIN POPULATIONS
--------------------------------------------
   0 C :   -0.605023    0.000000
   1 C :    0.627351   -0.000000
   2 C :    0.627340    0.000003
   3 C :   -0.039160    0.000002
   4 C :   -0.064255   -0.000005
   5 C :    0.021025    0.000008
   6 C :   -0.037988    0.000010
   7 C :   -0.063751    0.000104
   8 C :    0.022465   -0.000008
   9 H :   -0.051299    0.000003
  10 H :   -0.051400   -0.000001
  11 C :    0.042976    0.000000
  12 H :    0.031498   -0.000000
  13 H :    0.031517   -0.000000
  14 C :   -0.036312    0.000000
  15 H :    0.016361   -0.000000
  16 H :    0.016195   -0.000000
  17 C :   -0.023831    0.000000
  18 H :    0.005936    0.000000
  19 H :    0.005932    0.000000
  20 C :    0.003799   -0.000000
  21 H :    0.017019    0.000000
  22 H :    0.016917    0.000000
  23 C :    0.048527    0.000269
  24 H :    0.031937   -0.000007
  25 H :    0.031808   -0.000006
  26 C :   -0.035464    0.001322
  27 H :    0.016360   -0.000040
  28 H :    0.016654   -0.000039
  29 C :    0.015213    0.000815
  30 H :    0.003338   -0.000025
  31 H :    0.003383   -0.000025
  32 C :   -0.005946    0.010052
  33 H :    0.001869   -0.000240
  34 H :    0.001900   -0.000241
  35 C :    0.000381    0.049490
  36 H :    0.003394    0.000562
  37 H :    0.003343    0.000556
  38 C :   -0.000801   -0.065377
  39 H :    0.010476    0.013333
  40 H :    0.010457    0.013407
  41 C :   -0.068033    1.056711
  42 H :    0.024687   -0.040312
  43 H :    0.024678   -0.040318
  44 C :   -0.605107   -0.000003
  45 H :   -0.029481   -0.000000
  46 H :   -0.029466    0.000000
  47 H :    0.012581    0.000000
Sum of atomic charges         :   -0.0000000

LOEWDIN ATOMIC CHARGES AND SPIN POPULATIONS
-------------------------------------------
   0 C :   -0.050459    0.000000
   1 C :   -0.001653   -0.000000
   2 C :   -0.001685    0.000002
   3 C :   -0.051644    0.000000
   4 C :   -0.006265   -0.000003
   5 C :   -0.004005    0.000008
   6 C :   -0.051629    0.000021
   7 C :   -0.006423    0.000095
   8 C :   -0.004153    0.000001
   9 H :    0.030226    0.000002
  10 H :    0.030177    0.000002
  11 C :   -0.033879   -0.000000
  12 H :    0.039359   -0.000000
  13 H :    0.039377   -0.000000
  14 C :   -0.043699    0.000000
  15 H :    0.024338    0.000000
  16 H :    0.024341    0.000000
  17 C :   -0.046928    0.000000
  18 H :    0.024162    0.000000
  19 H :    0.024164    0.000000
  20 C :   -0.067491    0.000000
  21 H :    0.025177    0.000000
  22 H :    0.025167    0.000000
  23 C :   -0.033370    0.000246
  24 H :    0.039411   -0.000000
  25 H :    0.039344   -0.000000
  26 C :   -0.042217    0.001189
  27 H :    0.024549    0.000001
  28 H :    0.024502    0.000001
  29 C :   -0.039117    0.001492
  30 H :    0.023123    0.000030
  31 H :    0.023140    0.000031
  32 C :   -0.043144    0.007231
  33 H :    0.022235    0.000084
  34 H :    0.022256    0.000084
  35 C :   -0.037376    0.050424
  36 H :    0.021854    0.001105
  37 H :    0.021839    0.001107
  38 C :   -0.068210    0.010493
  39 H :    0.029319    0.010144
  40 H :    0.029317    0.010206
  41 C :   -0.015819    0.898188
  42 H :    0.009635    0.003910
  43 H :    0.009630    0.003911
  44 C :   -0.050397   -0.000003
  45 H :    0.022717    0.000000
  46 H :    0.022734   -0.000000
  47 H :    0.027470    0.000000

  Mayer bond orders larger than 0.100000
B(  0-C ,  1-C ) :   2.1185 B(  0-C , 45-H ) :   1.1191 B(  1-C ,  3-C ) :   0.9085
B(  2-C ,  6-C ) :   0.9076 B(  2-C , 44-C ) :   2.1184 B(  3-C ,  4-C ) :   1.3967
B(  3-C ,  8-C ) :   1.3723 B(  4-C ,  5-C ) :   1.4265 B(  4-C , 11-C ) :   1.0905
B(  5-C ,  6-C ) :   1.3732 B(  5-C ,  9-H ) :   0.9214 B(  6-C ,  7-C ) :   1.3972
B(  7-C ,  8-C ) :   1.4264 B(  7-C , 23-C ) :   1.0895 B(  8-C , 10-H ) :   0.9220
B( 11-C , 12-H ) :   0.8982 B( 11-C , 13-H ) :   0.8980 B( 11-C , 14-C ) :   1.1041
B( 14-C , 15-H ) :   0.9293 B( 14-C , 16-H ) :   0.9293 B( 14-C , 17-C ) :   1.0752
B( 17-C , 18-H ) :   0.9410 B( 17-C , 19-H ) :   0.9410 B( 17-C , 20-C ) :   1.1059
B( 20-C , 21-H ) :   0.9663 B( 20-C , 22-H ) :   0.9662 B( 20-C , 47-H ) :   0.9617
B( 23-C , 24-H ) :   0.8973 B( 23-C , 25-H ) :   0.8973 B( 23-C , 26-C ) :   1.1029
B( 26-C , 27-H ) :   0.9273 B( 26-C , 28-H ) :   0.9269 B( 26-C , 29-C ) :   1.0768
B( 29-C , 30-H ) :   0.9338 B( 29-C , 31-H ) :   0.9338 B( 29-C , 32-C ) :   1.0779
B( 32-C , 33-H ) :   0.9358 B( 32-C , 34-H ) :   0.9358 B( 32-C , 35-C ) :   1.0780
B( 35-C , 36-H ) :   0.9401 B( 35-C , 37-H ) :   0.9401 B( 35-C , 38-C ) :   1.0486
B( 38-C , 39-H ) :   0.9359 B( 38-C , 40-H ) :   0.9358 B( 38-C , 41-C ) :   1.1364
B( 41-C , 42-H ) :   0.9649 B( 41-C , 43-H ) :   0.9649 B( 44-C , 46-H ) :   1.1191

FINAL SINGLE POINT ENERGY      -815.796656977920

DIPOLE MOMENT
-------------
                                X             Y             Z
Electronic contribution:     -2.07572     -10.76901      -0.13808
Nuclear contribution   :      2.05439      10.63883       0.13610
                        -----------------------------------------
Total Dipole Moment    :     -0.02133      -0.13018      -0.00198
                        -----------------------------------------
Magnitude (a.u.)       :      0.13193
Magnitude (Debye)      :      0.33534

Rotational constants in cm-1:     0.021354     0.002920     0.002583
Rotational constants in MHz :   640.176281    87.546720    77.426860

                             ****ORCA TERMINATED NORMALLY****
TOTAL RUN TIME: 0 days 0 hours 2 minutes 48 seconds 910 msec
