                         Program Version 5.0.4 -  RELEASE  -
|  1> ! B3LYP EPR-II OPT
|  2> %pal nprocs 16 end
|  3> *XYZFile 0 2 model.xyz
|  4>
|  5>                          ****END OF INPUT****
 Total Charge           Charge          ....    0
 Multiplicity           Mult            ....    2
 Number of Electrons    NEL             ....  153
FINAL SINGLE POINT ENERGY      -815.876130785511
FINAL SINGLE POINT ENERGY      -815.877251386038
FINAL SINGLE POINT ENERGY      -815.877309460856
FINAL SINGLE POINT ENERGY      -815.877325327235
                    ***********************HURRAY********************

CARTESIAN COORDINATES (ANGSTROEM)
---------------------------------
  C     -4.043960    0.123850   -0.115421
  C     -2.824765    0.066623   -0.110425
  C      2.847272   -0.096982   -0.096248
  C     -1.390635    0.001448   -0.107709
  C     -0.723242   -1.253427   -0.131233
  C      0.675781   -1.236876   -0.126215
  C      1.413158   -0.031895   -0.099373
  C      0.745817    1.223035   -0.076136
  C     -0.653224    1.206423   -0.081055
  H      1.228967   -2.168663   -0.143294
  H     -1.206700    2.138042   -0.064205
  C     -1.530787   -2.542336   -0.160737
  H     -2.195015   -2.511226   -1.034763
  H     -2.202763   -2.546428    0.707879
  C     -0.728376   -3.852735   -0.183555
  H     -0.066727   -3.871511   -1.059841
  H     -0.079418   -3.909438    0.700584
  C     -1.636313   -5.095494   -0.217215
  H     -2.301835   -5.081265    0.656067
  H     -2.286547   -5.044637   -1.100589
  C     -0.845902   -6.415387   -0.238116
  H     -0.212809   -6.509736    0.651351
  H     -0.193301   -6.469815   -1.116752
  C      1.553504    2.511933   -0.046606
  H      2.211021    2.484958    0.832648
  H      2.232061    2.511813   -0.909979
  C      0.750474    3.822014   -0.036147
  H      0.105361    3.870902   -0.923381
  H      0.084996    3.845297    0.836938
  C      1.657834    5.065227   -0.007147
  H      2.304874    5.022269    0.879951
  H      2.327749    5.046713   -0.877945
  C      0.871154    6.387976    0.000939
  H      0.200697    6.405471    0.871534
  H      0.224756    6.430177   -0.886849
  C      1.773941    7.634144    0.030704
  H      2.442887    7.627036   -0.839358
  H      2.417177    7.603737    0.919451
  C      0.964463    8.963164    0.036488
  H      0.323854    8.977674   -0.855362
  H      0.297037    8.953751    0.908535
  C      1.825864   10.190007    0.066240
  H      2.192894   10.590708    1.006515
  H      2.220659   10.616394   -0.851208
  C      4.066492   -0.153706   -0.095147
  H     -5.108664    0.175163   -0.117826
  H      5.131232   -0.204226   -0.093239
  H     -1.515951   -7.280914   -0.265020

 Multiplicity           Mult            ....    2
 Number of Electrons    NEL             ....  153
 Basis Dimension        Dim             ....  546

ORBITAL ENERGIES
----------------
                 SPIN UP ORBITALS
  NO   OCC          E(Eh)            E(eV)
   0   1.0000     -10.224362      -278.2190
   1   1.0000     -10.224356      -278.2189
   2   1.0000     -10.212431      -277.8944
   3   1.0000     -10.212394      -277.8934
   4   1.0000     -10.207279      -277.7542
   5   1.0000     -10.207265      -277.7538
   6   1.0000     -10.200275      -277.5636
   7   1.0000     -10.200219      -277.5621
   8   1.0000     -10.198332      -277.5107
   9   1.0000     -10.198316      -277.5103
  10   1.0000     -10.187657      -277.2202
  11   1.0000     -10.187419      -277.2138
  12   1.0000     -10.187408      -277.2135
  13   1.0000     -10.184508      -277.1345
  14   1.0000     -10.182234      -277.0727
  15   1.0000     -10.181670      -277.0573
  16   1.0000     -10.181166      -277.0436
  17   1.0000     -10.180958      -277.0380
  18   1.0000     -10.179745      -277.0049
  19   1.0000     -10.178864      -276.9810
  20   1.0000     -10.171053      -276.7684
  21   1.0000      -0.873242       -23.7621
  22   1.0000      -0.817211       -22.2374
  23   1.0000      -0.803452       -21.8630
  24   1.0000      -0.793967       -21.6049
  25   1.0000      -0.783125       -21.3099
  26   1.0000      -0.760804       -20.7025
  27   1.0000      -0.752834       -20.4857
  28   1.0000      -0.731503       -19.9052
  29   1.0000      -0.721460       -19.6319
  30   1.0000      -0.704961       -19.1830
  31   1.0000      -0.669774       -18.2255
  32   1.0000      -0.642291       -17.4776
  33   1.0000      -0.636704       -17.3256
  34   1.0000      -0.611565       -16.6415
  35   1.0000      -0.590552       -16.0697
  36   1.0000      -0.578915       -15.7531
  37   1.0000      -0.572607       -15.5814
  38   1.0000      -0.564756       -15.3678
  39   1.0000      -0.544838       -14.8258
  40   1.0000      -0.527650       -14.3581
  41   1.0000      -0.499939       -13.6040
  42   1.0000      -0.485546       -13.2124
  43   1.0000      -0.481597       -13.1049
  44   1.0000      -0.475029       -12.9262
  45   1.0000      -0.471157       -12.8208
  46   1.0000      -0.461296       -12.5525
  47   1.0000      -0.431652       -11.7459
  48   1.0000      -0.429518       -11.6878
  49   1.0000      -0.425330       -11.5738
  50   1.0000      -0.421016       -11.4564
  51   1.0000      -0.419249       -11.4083
  52   1.0000      -0.412089       -11.2135
  53   1.0000      -0.400480       -10.8976
  54   1.0000      -0.393285       -10.7018
  55   1.0000      -0.388136       -10.5617
  56   1.0000      -0.374178       -10.1819
  57   1.0000      -0.373434       -10.1617
  58   1.0000      -0.362532        -9.8650
  59   1.0000      -0.359291        -9.7768
  60   1.0000      -0.355883        -9.6841
  61   1.0000      -0.343618        -9.3503
  62   1.0000      -0.342189        -9.3114
  63   1.0000      -0.331137        -9.0107
  64   1.0000      -0.329011        -8.9528
  65   1.0000      -0.325957        -8.8697
  66   1.0000      -0.325523        -8.8579
  67   1.0000      -0.322320        -8.7708
  68   1.0000      -0.321931        -8.7602
  69   1.0000      -0.320548        -8.7226
  70   1.0000      -0.314536        -8.5590
  71   1.0000      -0.280381        -7.6296
  72   1.0000      -0.277505        -7.5513
  73   1.0000      -0.276415        -7.5216
  74   1.0000      -0.246882        -6.7180
  75   1.0000      -0.220721        -6.0061
  76   1.0000      -0.198708        -5.4071
  77   0.0000      -0.054175        -1.4742
  78   0.0000      -0.006509        -0.1771
  79   0.0000       0.018616         0.5066
  80   0.0000       0.021876         0.5953
  81   0.0000       0.024327         0.6620

                 SPIN DOWN ORBITALS
  NO   OCC          E(Eh)            E(eV)
   0   1.0000     -10.224361      -278.2190
   1   1.0000     -10.224356      -278.2189
   2   1.0000     -10.212429      -277.8943
   3   1.0000     -10.212394      -277.8934
   4   1.0000     -10.207279      -277.7542
   5   1.0000     -10.207265      -277.7538
   6   1.0000     -10.200275      -277.5636
   7   1.0000     -10.200219      -277.5621
   8   1.0000     -10.198332      -277.5107
   9   1.0000     -10.198316      -277.5103
  10   1.0000     -10.187651      -277.2201
  11   1.0000     -10.187408      -277.2135
  12   1.0000     -10.185361      -277.1578
  13   1.0000     -10.182198      -277.0717
  14   1.0000     -10.181670      -277.0573
  15   1.0000     -10.181166      -277.0436
  16   1.0000     -10.179711      -277.0040
  17   1.0000     -10.179413      -276.9959
  18   1.0000     -10.178673      -276.9758
  19   1.0000     -10.173649      -276.8391
  20   1.0000     -10.171053      -276.7684
  21   1.0000      -0.873240       -23.7621
  22   1.0000      -0.817085       -22.2340
  23   1.0000      -0.801735       -21.8163
  24   1.0000      -0.793934       -21.6040
  25   1.0000      -0.780167       -21.2294
  26   1.0000      -0.758278       -20.6338
  27   1.0000      -0.752224       -20.4691
  28   1.0000      -0.727775       -19.8038
  29   1.0000      -0.721387       -19.6299
  30   1.0000      -0.701241       -19.0817
  31   1.0000      -0.664191       -18.0736
  32   1.0000      -0.641340       -17.4518
  33   1.0000      -0.633686       -17.2435
  34   1.0000      -0.606797       -16.5118
  35   1.0000      -0.587433       -15.9849
  36   1.0000      -0.577098       -15.7036
  37   1.0000      -0.567520       -15.4430
  38   1.0000      -0.561338       -15.2748
  39   1.0000      -0.544834       -14.8257
  40   1.0000      -0.527630       -14.3576
  41   1.0000      -0.499915       -13.6034
  42   1.0000      -0.485543       -13.2123
  43   1.0000      -0.480811       -13.0835
  44   1.0000      -0.474981       -12.9249
  45   1.0000      -0.471150       -12.8206
  46   1.0000      -0.459041       -12.4912
  47   1.0000      -0.431560       -11.7433
  48   1.0000      -0.427021       -11.6198
  49   1.0000      -0.424489       -11.5509
  50   1.0000      -0.420608       -11.4453
  51   1.0000      -0.418323       -11.3832
  52   1.0000      -0.409695       -11.1484
  53   1.0000      -0.397698       -10.8219
  54   1.0000      -0.391236       -10.6461
  55   1.0000      -0.385376       -10.4866
  56   1.0000      -0.373263       -10.1570
  57   1.0000      -0.370708       -10.0875
  58   1.0000      -0.360358        -9.8059
  59   1.0000      -0.358666        -9.7598
  60   1.0000      -0.355053        -9.6615
  61   1.0000      -0.342842        -9.3292
  62   1.0000      -0.339887        -9.2488
  63   1.0000      -0.330678        -8.9982
  64   1.0000      -0.328702        -8.9444
  65   1.0000      -0.325283        -8.8514
  66   1.0000      -0.325121        -8.8470
  67   1.0000      -0.321888        -8.7590
  68   1.0000      -0.321621        -8.7518
  69   1.0000      -0.320231        -8.7139
  70   1.0000      -0.310394        -8.4463
  71   1.0000      -0.280381        -7.6296
  72   1.0000      -0.277504        -7.5513
  73   1.0000      -0.276398        -7.5212
  74   1.0000      -0.246881        -6.7180
  75   1.0000      -0.220721        -6.0061
  76   0.0000      -0.054175        -1.4742
  77   0.0000      -0.051096        -1.3904
  78   0.0000      -0.006508        -0.1771
  79   0.0000       0.018628         0.5069
  80   0.0000       0.021897         0.5959

MULLIKEN ATOMIC CHARGES AND SPIN POPULATIONS
--------------------------------------------
   0 C :   -0.538630   -0.000001
   1 C :   -0.004515    0.000020
   2 C :   -0.003423   -0.000045
   3 C :    0.387472   -0.000071
   4 C :    0.327459    0.000030
   5 C :   -0.414509    0.000002
   6 C :    0.391726    0.000040
   7 C :    0.327144    0.000349
   8 C :   -0.413703   -0.000037
   9 H :    0.135113    0.000000
  10 H :    0.135225   -0.000000
  11 C :   -0.389917   -0.000003
  12 H :    0.155585   -0.000000
  13 H :    0.155572   -0.000000
  14 C :   -0.267838   -0.000002
  15 H :    0.141553   -0.000000
  16 H :    0.141922   -0.000000
  17 C :   -0.262613    0.000000
  18 H :    0.144845   -0.000000
  19 H :    0.144950   -0.000000
  20 C :   -0.510324    0.000000
  21 H :    0.159690   -0.000000
  22 H :    0.159554   -0.000000
  23 C :   -0.402671    0.000222
  24 H :    0.158085   -0.000008
  25 H :    0.157678   -0.000008
  26 C :   -0.270324    0.001508
  27 H :    0.145360   -0.000072
  28 H :    0.144399   -0.000073
  29 C :   -0.289286   -0.001012
  30 H :    0.145760    0.000051
  31 H :    0.145700    0.000051
  32 C :   -0.288023    0.006458
  33 H :    0.147868   -0.000262
  34 H :    0.147933   -0.000262
  35 C :   -0.308312    0.069515
  36 H :    0.158768   -0.002688
  37 H :    0.158806   -0.002694
  38 C :   -0.230199   -0.073682
  39 H :    0.150050    0.011799
  40 H :    0.150030    0.011833
  41 C :   -0.435042    1.057614
  42 H :    0.167886   -0.039284
  43 H :    0.167889   -0.039287
  44 C :   -0.537177    0.000000
  45 H :    0.184044   -0.000000
  46 H :    0.183932   -0.000000
  47 H :    0.144504   -0.000000
Sum of atomic charges         :    0.0000000

LOEWDIN ATOMIC CHARGES AND SPIN POPULATIONS
-------------------------------------------
   0 C :   -0.059933    0.000000
   1 C :   -0.029552    0.000000
   2 C :   -0.029499    0.000002
   3 C :   -0.069394    0.000001
   4 C :   -0.040650   -0.000003
   5 C :   -0.005304    0.000006
   6 C :   -0.069340    0.000019
   7 C :   -0.040855    0.000098
   8 C :   -0.005484    0.000001
   9 H :    0.061015    0.000002
  10 H :    0.060921    0.000002
  11 C :   -0.043008   -0.000000
  12 H :    0.059520   -0.000000
  13 H :    0.059499   -0.000000
  14 C :   -0.079549    0.000000
  15 H :    0.044439    0.000000
  16 H :    0.044532    0.000000
  17 C :   -0.089772    0.000000
  18 H :    0.041053    0.000000
  19 H :    0.041044    0.000000
  20 C :   -0.078611    0.000000
  21 H :    0.034009    0.000000
  22 H :    0.034017    0.000000
  23 C :   -0.042601    0.000235
  24 H :    0.059559    0.000001
  25 H :    0.059543    0.000001
  26 C :   -0.076794    0.001244
  27 H :    0.044874   -0.000009
  28 H :    0.044615   -0.000009
  29 C :   -0.081860    0.001397
  30 H :    0.044688    0.000055
  31 H :    0.044682    0.000054
  32 C :   -0.085565    0.007187
  33 H :    0.043938    0.000021
  34 H :    0.043954    0.000021
  35 C :   -0.081114    0.058476
  36 H :    0.044163    0.000094
  37 H :    0.044160    0.000096
  38 C :   -0.105670    0.011341
  39 H :    0.046943    0.009509
  40 H :    0.046952    0.009537
  41 C :   -0.047575    0.887394
  42 H :    0.025760    0.006614
  43 H :    0.025757    0.006614
  44 C :   -0.059899   -0.000003
  45 H :    0.045387    0.000000
  46 H :    0.045401    0.000000
  47 H :    0.031602    0.000000

  Mayer bond orders larger than 0.100000
B(  0-C ,  1-C ) :   2.7074 B(  0-C , 45-H ) :   0.9834 B(  1-C ,  3-C ) :   0.9082
B(  2-C ,  6-C ) :   0.9150 B(  2-C , 44-C ) :   2.7042 B(  3-C ,  4-C ) :   1.3673
B(  3-C ,  5-C ) :   0.1133 B(  3-C ,  8-C ) :   1.4163 B(  4-C ,  5-C ) :   1.4386
B(  4-C , 11-C ) :   0.9438 B(  5-C ,  6-C ) :   1.4224 B(  5-C ,  9-H ) :   0.9703
B(  6-C ,  7-C ) :   1.3569 B(  6-C ,  8-C ) :   0.1123 B(  7-C ,  8-C ) :   1.4426
B(  7-C , 23-C ) :   0.9368 B(  8-C , 10-H ) :   0.9709 B( 11-C , 12-H ) :   0.9607
B( 11-C , 13-H ) :   0.9605 B( 11-C , 14-C ) :   1.0198 B( 14-C , 15-H ) :   0.9612
B( 14-C , 16-H ) :   0.9616 B( 14-C , 17-C ) :   0.9858 B( 17-C , 18-H ) :   0.9717
B( 17-C , 19-H ) :   0.9719 B( 17-C , 20-C ) :   0.9544 B( 20-C , 21-H ) :   0.9730
B( 20-C , 22-H ) :   0.9730 B( 20-C , 47-H ) :   0.9678 B( 23-C , 24-H ) :   0.9620
B( 23-C , 25-H ) :   0.9617 B( 23-C , 26-C ) :   1.0100 B( 26-C , 27-H ) :   0.9623
B( 26-C , 28-H ) :   0.9614 B( 26-C , 29-C ) :   0.9684 B( 29-C , 30-H ) :   0.9768
B( 29-C , 31-H ) :   0.9766 B( 29-C , 32-C ) :   0.9692 B( 32-C , 33-H ) :   0.9808
B( 32-C , 34-H ) :   0.9807 B( 32-C , 35-C ) :   0.9548 B( 35-C , 36-H ) :   0.9792
B( 35-C , 37-H ) :   0.9792 B( 35-C , 38-C ) :   0.9352 B( 38-C , 39-H ) :   0.9781
B( 38-C , 40-H ) :   0.9781 B( 38-C , 41-C ) :   0.9734 B( 41-C , 42-H ) :   0.9738
B( 41-C , 43-H ) :   0.9738 B( 44-C , 46-H ) :   0.9833

FINAL SINGLE POINT ENERGY      -815.877327442482

DIPOLE MOMENT
-------------
                                X             Y             Z
Electronic contribution:     -2.08928     -10.82348      -0.11996
Nuclear contribution   :      2.07086      10.67733       0.11733
                        -----------------------------------------
Total Dipole Moment    :     -0.01842      -0.14616      -0.00263
                        -----------------------------------------
Magnitude (a.u.)       :      0.14734
Magnitude (Debye)      :      0.37450

Rotational constants in cm-1:     0.021268     0.002909     0.002573
Rotational constants in MHz :   637.584761    87.209896    77.122107

                             ****ORCA TERMINATED NORMALLY****
TOTAL RUN TIME: 0 days 0 hours 9 minutes 14 seconds 451 msec
