                         Program Version 5.0.4 -  RELEASE  -
|  1> ! B3LYP cc-pVDZ AUTOAUX
|  2> %pal nprocs 16 end
|  3> *XYZFile 0 2 opt.xyz
|  4> %EPRNMR
|  5>         GTENSOR   TRUE
|  6>         NUCLEI    = ALL H {SHIFT, AISO, ADIP, AORB}
|  7>         ORI       GIAO
|  8> END
|  9>
| 10>                          ****END OF INPUT****

CARTESIAN COORDINATES (ANGSTROEM)
---------------------------------
  C     -4.099903    0.083492   -0.018353
  C     -2.815946    0.043661   -0.012330
  C      2.806008   -0.004269   -0.008539
  C     -1.423131    0.006681   -0.011521
  C     -0.708303   -1.246812   -0.013959
  C      0.675892   -1.194656   -0.012684
  C      1.390969    0.032616   -0.009322
  C      0.692187    1.284040   -0.006826
  C     -0.689714    1.234894   -0.008082
  H      1.259776   -2.114722   -0.014385
  H     -1.277365    2.152363   -0.006417
  C     -1.482678   -2.545270   -0.017742
  H     -2.162956   -2.531884   -0.888087
  H     -2.164001   -2.536305    0.851848
  C     -0.664773   -3.838900   -0.020463
  H     -0.001060   -3.863836   -0.904705
  H     -0.002550   -3.868472    0.864757
  C     -1.549765   -5.091581   -0.024486
  H     -2.216738   -5.067647    0.856694
  H     -2.214979   -5.063238   -0.906864
  C     -0.747242   -6.394947   -0.026958
  H     -0.098785   -6.468624    0.863263
  H     -0.096713   -6.463963   -0.916039
  C      1.475610    2.580851   -0.003105
  H      2.150780    2.571663    0.872485
  H      2.151902    2.575969   -0.877872
  C      0.660276    3.876516   -0.000466
  H     -0.001813    3.904739   -0.885019
  H     -0.003430    3.900164    0.883007
  C      1.545553    5.128838    0.003581
  H      2.210398    5.101571    0.886923
  H      2.212314    5.105900   -0.878438
  C      0.742544    6.432044    0.005924
  H      0.091762    6.499753    0.894507
  H      0.094086    6.504395   -0.883993
  C      4.030665   -0.051608   -0.009917
  H     -1.409442   -7.275742   -0.030044
  H      1.404248    7.313240    0.009096
  C      5.453353   -0.107226   -0.009647
  C      6.121835   -1.352501   -0.012193
  C      7.514506   -1.401458   -0.011853
  C      8.262259   -0.217737   -0.009063
  C      7.609924    1.021237   -0.006590
  C      6.217754    1.081653   -0.006879
  H      9.353772   -0.260949   -0.008833
  H      8.191473    1.945911   -0.004438
  H      5.533939   -2.272105   -0.014369
  H      5.703998    2.044629   -0.004992
  H      8.021809   -2.368853   -0.013791

 Total Charge           Charge          ....    0
 Multiplicity           Mult            ....    2
 Number of Electrons    NEL             ....  169
 Basis Dimension        Dim             ....  461

ORBITAL ENERGIES
----------------
                 SPIN UP ORBITALS
  NO   OCC          E(Eh)            E(eV)
   0   1.0000     -10.243923      -278.7513
   1   1.0000     -10.235722      -278.5281
   2   1.0000     -10.229512      -278.3592
   3   1.0000     -10.223015      -278.1824
   4   1.0000     -10.219893      -278.0974
   5   1.0000     -10.219349      -278.0826
   6   1.0000     -10.217127      -278.0222
   7   1.0000     -10.216977      -278.0181
   8   1.0000     -10.215167      -277.9688
   9   1.0000     -10.212645      -277.9002
  10   1.0000     -10.212552      -277.8977
  11   1.0000     -10.212526      -277.8970
  12   1.0000     -10.210881      -277.8522
  13   1.0000     -10.209948      -277.8268
  14   1.0000     -10.201268      -277.5906
  15   1.0000     -10.192759      -277.3591
  16   1.0000     -10.191182      -277.3162
  17   1.0000     -10.189634      -277.2740
  18   1.0000     -10.187882      -277.2264
  19   1.0000     -10.184345      -277.1301
  20   1.0000     -10.180763      -277.0326
  21   1.0000     -10.178320      -276.9662
  22   1.0000     -10.170851      -276.7629
  23   1.0000     -10.168887      -276.7095
  24   1.0000      -0.892952       -24.2985
  25   1.0000      -0.882808       -24.0224
  26   1.0000      -0.833110       -22.6701
  27   1.0000      -0.814693       -22.1689
  28   1.0000      -0.802338       -21.8327
  29   1.0000      -0.796068       -21.6621
  30   1.0000      -0.777316       -21.1519
  31   1.0000      -0.769784       -20.9469
  32   1.0000      -0.753144       -20.4941
  33   1.0000      -0.738894       -20.1063
  34   1.0000      -0.717972       -19.5370
  35   1.0000      -0.706752       -19.2317
  36   1.0000      -0.663041       -18.0423
  37   1.0000      -0.657166       -17.8824
  38   1.0000      -0.632563       -17.2129
  39   1.0000      -0.629921       -17.1410
  40   1.0000      -0.627390       -17.0722
  41   1.0000      -0.601791       -16.3756
  42   1.0000      -0.586002       -15.9459
  43   1.0000      -0.572884       -15.5890
  44   1.0000      -0.557501       -15.1704
  45   1.0000      -0.524897       -14.2832
  46   1.0000      -0.522226       -14.2105
  47   1.0000      -0.498035       -13.5522
  48   1.0000      -0.492795       -13.4096
  49   1.0000      -0.480681       -13.0800
  50   1.0000      -0.476556       -12.9678
  51   1.0000      -0.475449       -12.9376
  52   1.0000      -0.453697       -12.3457
  53   1.0000      -0.445469       -12.1218
  54   1.0000      -0.442488       -12.0407
  55   1.0000      -0.435301       -11.8452
  56   1.0000      -0.434859       -11.8331
  57   1.0000      -0.429955       -11.6997
  58   1.0000      -0.423932       -11.5358
  59   1.0000      -0.418343       -11.3837
  60   1.0000      -0.409789       -11.1509
  61   1.0000      -0.403741       -10.9863
  62   1.0000      -0.391174       -10.6444
  63   1.0000      -0.382278       -10.4023
  64   1.0000      -0.378816       -10.3081
  65   1.0000      -0.374320       -10.1858
  66   1.0000      -0.369224       -10.0471
  67   1.0000      -0.367087        -9.9890
  68   1.0000      -0.366846        -9.9824
  69   1.0000      -0.353922        -9.6307
  70   1.0000      -0.344085        -9.3630
  71   1.0000      -0.341279        -9.2867
  72   1.0000      -0.336168        -9.1476
  73   1.0000      -0.332608        -9.0507
  74   1.0000      -0.330816        -9.0020
  75   1.0000      -0.330219        -8.9857
  76   1.0000      -0.326476        -8.8839
  77   1.0000      -0.310972        -8.4620
  78   1.0000      -0.291532        -7.9330
  79   1.0000      -0.277539        -7.5522
  80   1.0000      -0.265888        -7.2352
  81   1.0000      -0.262474        -7.1423
  82   1.0000      -0.243660        -6.6303
  83   1.0000      -0.242735        -6.6052
  84   1.0000      -0.218475        -5.9450
  85   0.0000      -0.080214        -2.1827
  86   0.0000      -0.028676        -0.7803
  87   0.0000      -0.028612        -0.7786
  88   0.0000      -0.019185        -0.5221
  89   0.0000       0.023095         0.6284

                 SPIN DOWN ORBITALS
  NO   OCC          E(Eh)            E(eV)
   0   1.0000     -10.240846      -278.6676
   1   1.0000     -10.236187      -278.5408
   2   1.0000     -10.229949      -278.3711
   3   1.0000     -10.220937      -278.1258
   4   1.0000     -10.220905      -278.1250
   5   1.0000     -10.217338      -278.0279
   6   1.0000     -10.216535      -278.0060
   7   1.0000     -10.216384      -278.0019
   8   1.0000     -10.214537      -277.9517
   9   1.0000     -10.213460      -277.9224
  10   1.0000     -10.212932      -277.9080
  11   1.0000     -10.212805      -277.9045
  12   1.0000     -10.211098      -277.8581
  13   1.0000     -10.209179      -277.8059
  14   1.0000     -10.201215      -277.5892
  15   1.0000     -10.192898      -277.3629
  16   1.0000     -10.191185      -277.3163
  17   1.0000     -10.189635      -277.2741
  18   1.0000     -10.187885      -277.2264
  19   1.0000     -10.184346      -277.1301
  20   1.0000     -10.180763      -277.0326
  21   1.0000     -10.178321      -276.9662
  22   1.0000     -10.166908      -276.6556
  23   1.0000     -10.164512      -276.5904
  24   1.0000      -0.890007       -24.2183
  25   1.0000      -0.881980       -23.9999
  26   1.0000      -0.830847       -22.6085
  27   1.0000      -0.812982       -22.1224
  28   1.0000      -0.801840       -21.8192
  29   1.0000      -0.793378       -21.5889
  30   1.0000      -0.776817       -21.1383
  31   1.0000      -0.769251       -20.9324
  32   1.0000      -0.749842       -20.4042
  33   1.0000      -0.737937       -20.0803
  34   1.0000      -0.711204       -19.3529
  35   1.0000      -0.698398       -19.0044
  36   1.0000      -0.662306       -18.0223
  37   1.0000      -0.652049       -17.7431
  38   1.0000      -0.629614       -17.1327
  39   1.0000      -0.629341       -17.1252
  40   1.0000      -0.626976       -17.0609
  41   1.0000      -0.600487       -16.3401
  42   1.0000      -0.585873       -15.9424
  43   1.0000      -0.572334       -15.5740
  44   1.0000      -0.556808       -15.1515
  45   1.0000      -0.523411       -14.2427
  46   1.0000      -0.519954       -14.1487
  47   1.0000      -0.497131       -13.5276
  48   1.0000      -0.491766       -13.3816
  49   1.0000      -0.480596       -13.0777
  50   1.0000      -0.476215       -12.9585
  51   1.0000      -0.474816       -12.9204
  52   1.0000      -0.453350       -12.3363
  53   1.0000      -0.444765       -12.1027
  54   1.0000      -0.442340       -12.0367
  55   1.0000      -0.434609       -11.8263
  56   1.0000      -0.432787       -11.7767
  57   1.0000      -0.429814       -11.6958
  58   1.0000      -0.422667       -11.5013
  59   1.0000      -0.418160       -11.3787
  60   1.0000      -0.409158       -11.1338
  61   1.0000      -0.400761       -10.9053
  62   1.0000      -0.386773       -10.5246
  63   1.0000      -0.381691       -10.3863
  64   1.0000      -0.378368       -10.2959
  65   1.0000      -0.374241       -10.1836
  66   1.0000      -0.368907       -10.0385
  67   1.0000      -0.366325        -9.9682
  68   1.0000      -0.364752        -9.9254
  69   1.0000      -0.351661        -9.5692
  70   1.0000      -0.341173        -9.2838
  71   1.0000      -0.336796        -9.1647
  72   1.0000      -0.336149        -9.1471
  73   1.0000      -0.332520        -9.0483
  74   1.0000      -0.330604        -8.9962
  75   1.0000      -0.329844        -8.9755
  76   1.0000      -0.325995        -8.8708
  77   1.0000      -0.297230        -8.0880
  78   1.0000      -0.290645        -7.9088
  79   1.0000      -0.276057        -7.5119
  80   1.0000      -0.261543        -7.1169
  81   1.0000      -0.244654        -6.6574
  82   1.0000      -0.236280        -6.4295
  83   1.0000      -0.234322        -6.3762
  84   0.0000      -0.153133        -4.1670
  85   0.0000      -0.069207        -1.8832
  86   0.0000      -0.027143        -0.7386
  87   0.0000      -0.017989        -0.4895
  88   0.0000      -0.012618        -0.3434

MULLIKEN ATOMIC CHARGES AND SPIN POPULATIONS
--------------------------------------------
   0 C :   -0.275252    0.310438
   1 C :   -0.101066    0.289117
   2 C :    0.291266   -0.075780
   3 C :    0.080273   -0.028486
   4 C :   -0.056907    0.143631
   5 C :    0.015982   -0.085462
   6 C :   -0.167424    0.208201
   7 C :   -0.063924   -0.074259
   8 C :    0.047815    0.119687
   9 H :   -0.046451    0.002730
  10 H :   -0.032818   -0.005584
  11 C :    0.058620   -0.013020
  12 H :    0.044223    0.007118
  13 H :    0.044139    0.007134
  14 C :   -0.040393    0.000353
  15 H :    0.014562   -0.000070
  16 H :    0.014538   -0.000070
  17 C :   -0.024391    0.000032
  18 H :    0.011311   -0.000010
  19 H :    0.011338   -0.000010
  20 C :    0.002218   -0.000049
  21 H :    0.016097    0.000013
  22 H :    0.016092    0.000013
  23 C :    0.038136    0.004848
  24 H :    0.033727   -0.002012
  25 H :    0.033745   -0.002009
  26 C :   -0.036200   -0.000368
  27 H :    0.021861    0.000026
  28 H :    0.021843    0.000026
  29 C :   -0.027432   -0.000042
  30 H :    0.005608    0.000009
  31 H :    0.005609    0.000010
  32 C :    0.003222    0.000016
  33 H :    0.020701   -0.000005
  34 H :    0.020719   -0.000005
  35 C :    0.161835    0.143585
  36 H :    0.015884   -0.000004
  37 H :    0.014069   -0.000003
  38 C :   -0.264991   -0.029215
  39 C :    0.036788    0.039920
  40 C :    0.041929   -0.021252
  41 C :    0.039021    0.046096
  42 C :    0.041781   -0.021244
  43 C :    0.033865    0.039887
  44 H :   -0.018219   -0.002061
  45 H :   -0.019496    0.000823
  46 H :   -0.032475   -0.001757
  47 H :   -0.031979   -0.001758
  48 H :   -0.019399    0.000823
Sum of atomic charges         :   -0.0000000

LOEWDIN ATOMIC CHARGES AND SPIN POPULATIONS
-------------------------------------------
   0 C :   -0.159631    0.323564
   1 C :   -0.110190    0.258256
   2 C :   -0.011877   -0.032243
   3 C :   -0.036825    0.001717
   4 C :    0.021048    0.111201
   5 C :   -0.004934   -0.047913
   6 C :   -0.017141    0.152645
   7 C :   -0.006428   -0.039341
   8 C :    0.020871    0.095165
   9 H :    0.032120   -0.000425
  10 H :    0.037743   -0.000235
  11 C :   -0.031116    0.000001
  12 H :    0.047521    0.005190
  13 H :    0.047490    0.005201
  14 C :   -0.044694   -0.000167
  15 H :    0.023302   -0.000080
  16 H :    0.023295   -0.000080
  17 C :   -0.045666   -0.000019
  18 H :    0.026576    0.000026
  19 H :    0.026587    0.000026
  20 C :   -0.067593   -0.000028
  21 H :    0.024703    0.000009
  22 H :    0.024704    0.000009
  23 C :   -0.034486   -0.000216
  24 H :    0.039469   -0.001569
  25 H :    0.039478   -0.001567
  26 C :   -0.042469   -0.000066
  27 H :    0.026954    0.000056
  28 H :    0.026943    0.000056
  29 C :   -0.047249   -0.000033
  30 H :    0.023749   -0.000011
  31 H :    0.023748   -0.000011
  32 C :   -0.066488    0.000004
  33 H :    0.026816   -0.000003
  34 H :    0.026820   -0.000003
  35 C :    0.005888    0.110613
  36 H :    0.028932   -0.000005
  37 H :    0.028274   -0.000002
  38 C :   -0.056122   -0.013174
  39 C :    0.007396    0.031381
  40 C :   -0.019515   -0.012575
  41 C :   -0.008644    0.035913
  42 C :   -0.019711   -0.012570
  43 C :    0.006403    0.031338
  44 H :    0.032127    0.000092
  45 H :    0.032783   -0.000050
  46 H :    0.033171   -0.000013
  47 H :    0.032994   -0.000013
  48 H :    0.032872   -0.000050

  Mayer bond orders larger than 0.100000
B(  0-C ,  1-C ) :   2.8974 B(  1-C ,  3-C ) :   1.0563 B(  2-C ,  6-C ) :   0.9236
B(  2-C , 35-C ) :   1.6802 B(  2-C , 38-C ) :  -0.1840 B(  3-C ,  4-C ) :   1.2773
B(  3-C ,  8-C ) :   1.2760 B(  4-C ,  5-C ) :   1.4846 B(  4-C , 11-C ) :   1.1014
B(  5-C ,  6-C ) :   1.3300 B(  5-C ,  9-H ) :   0.9238 B(  6-C ,  7-C ) :   1.3305
B(  7-C ,  8-C ) :   1.4941 B(  7-C , 23-C ) :   1.0937 B(  8-C , 10-H ) :   0.9246
B( 11-C , 12-H ) :   0.8926 B( 11-C , 13-H ) :   0.8925 B( 11-C , 14-C ) :   1.1009
B( 14-C , 15-H ) :   0.9285 B( 14-C , 16-H ) :   0.9285 B( 14-C , 17-C ) :   1.0753
B( 17-C , 18-H ) :   0.9414 B( 17-C , 19-H ) :   0.9414 B( 17-C , 20-C ) :   1.1056
B( 20-C , 21-H ) :   0.9661 B( 20-C , 22-H ) :   0.9661 B( 20-C , 36-H ) :   0.9619
B( 23-C , 24-H ) :   0.8966 B( 23-C , 25-H ) :   0.8967 B( 23-C , 26-C ) :   1.1045
B( 26-C , 27-H ) :   0.9299 B( 26-C , 28-H ) :   0.9299 B( 26-C , 29-C ) :   1.0740
B( 29-C , 30-H ) :   0.9411 B( 29-C , 31-H ) :   0.9411 B( 29-C , 32-C ) :   1.1066
B( 32-C , 33-H ) :   0.9662 B( 32-C , 34-H ) :   0.9662 B( 32-C , 37-H ) :   0.9613
B( 35-C , 38-C ) :   0.9525 B( 38-C , 39-C ) :   1.4288 B( 38-C , 43-C ) :   1.4269
B( 39-C , 40-C ) :   1.4748 B( 39-C , 46-H ) :   0.9417 B( 40-C , 41-C ) :   1.4410
B( 40-C , 48-H ) :   0.9387 B( 41-C , 42-C ) :   1.4404 B( 41-C , 44-H ) :   0.9440
B( 42-C , 43-C ) :   1.4750 B( 42-C , 45-H ) :   0.9387 B( 43-C , 47-H ) :   0.9420

FINAL SINGLE POINT ENERGY      -928.844276656146

DIPOLE MOMENT
-------------
                                X             Y             Z
Electronic contribution:      8.91389      -0.21332       0.00185
Nuclear contribution   :     -5.17354       0.11309       0.00539
                        -----------------------------------------
Total Dipole Moment    :      3.74036      -0.10023       0.00724
                        -----------------------------------------
Magnitude (a.u.)       :      3.74171
Magnitude (Debye)      :      9.51066

Rotational constants in cm-1:     0.006500     0.004325     0.002607
Rotational constants in MHz :   194.876145   129.670307    78.163739

CHEMICAL SHIELDING SUMMARY (ppm)  --  Orbital contribution
----------------------------------------------------------

  Nucleus  Element    Isotropic     Anisotropy
  -------  -------  ------------   ------------
      9       H           24.048         13.509
     10       H           24.973          9.221
     12       H           28.769          7.242
     13       H           28.766          7.203
     15       H           29.805          4.803
     16       H           29.804          4.804
     18       H           29.841          7.097
     19       H           29.841          7.105
     21       H           30.312          7.602
     22       H           30.313          7.602
     24       H           28.545          6.118
     25       H           28.545          6.121
     27       H           29.728          5.389
     28       H           29.727          5.384
     30       H           29.811          6.110
     31       H           29.811          6.111
     33       H           30.252          8.199
     34       H           30.252          8.201
     36       H           30.056         10.195
     37       H           30.067         10.100
     44       H           24.046          4.643
     45       H           24.068          5.436
     46       H           23.854          7.441
     47       H           23.842          7.496
     48       H           24.057          5.168

                             ****ORCA TERMINATED NORMALLY****
TOTAL RUN TIME: 0 days 1 hours 20 minutes 46 seconds 487 msec
