                         Program Version 5.0.4 -  RELEASE  -
|  1> ! B3LYP cc-pVDZ AUTOAUX
|  2> %pal nprocs 16 end
|  3> *XYZFile 0 2 opt_cc-pVDZ.xyz
|  4> %EPRNMR
|  5>         GTENSOR   TRUE
|  6>         NUCLEI    = ALL H {SHIFT, AISO, ADIP, AORB}
|  7>         ORI       GIAO
|  8> END
|  9>
| 10>                          ****END OF INPUT****

CARTESIAN COORDINATES (ANGSTROEM)
---------------------------------
  C     -4.099899    0.082567   -0.018222
  C     -2.815921    0.043418   -0.012229
  C      2.806049   -0.003031   -0.008541
  C     -1.423093    0.006863   -0.011428
  C     -0.707962   -1.246480   -0.013936
  C      0.676236   -1.193941   -0.012699
  C      1.390993    0.033560   -0.009300
  C      0.691892    1.284761   -0.006775
  C     -0.689981    1.235246   -0.007997
  H      1.260463   -2.113783   -0.014437
  H     -1.277924    2.152514   -0.006310
  C     -1.482008   -2.545169   -0.017734
  H     -2.162351   -2.531957   -0.888129
  H     -2.163386   -2.536406    0.851912
  C     -0.663838   -3.838606   -0.020482
  H     -0.000096   -3.863432   -0.904786
  H     -0.001596   -3.868106    0.864805
  C     -1.548663   -5.091379   -0.024540
  H     -2.215661   -5.067542    0.856707
  H     -2.213902   -5.063080   -0.906983
  C     -0.745911   -6.394552   -0.027052
  H     -0.097468   -6.468101    0.863227
  H     -0.095359   -6.463360   -0.916169
  C      1.475014    2.581762   -0.003063
  H      2.150207    2.572768    0.872597
  H      2.151368    2.577042   -0.877865
  C      0.659386    3.877214   -0.000463
  H     -0.002720    3.905301   -0.885088
  H     -0.004360    3.900769    0.883063
  C      1.544472    5.129641    0.003570
  H      2.209340    5.102453    0.886978
  H      2.211255    5.106769   -0.878515
  C      0.741225    6.432647    0.005903
  H      0.090431    6.500190    0.894528
  H      0.092772    6.504832   -0.884068
  C      4.030698   -0.050771   -0.009906
  H     -1.407951   -7.275432   -0.030188
  H      1.402772    7.313924    0.009079
  C      5.453343   -0.107447   -0.009657
  C      6.120738   -1.353300   -0.011991
  C      7.513356   -1.403494   -0.011667
  C      8.262125   -0.220420   -0.009064
  C      7.610872    1.019106   -0.006781
  C      6.218765    1.080757   -0.007089
  H      9.353658   -0.264543   -0.008825
  H      8.193249    1.943256   -0.004756
  H      5.532020   -2.272375   -0.014021
  H      5.705859    2.044207   -0.005329
  H      8.019799   -2.371347   -0.013462

 Total Charge           Charge          ....    0
 Multiplicity           Mult            ....    2
 Number of Electrons    NEL             ....  169
 Basis Dimension        Dim             ....  461

ORBITAL ENERGIES
----------------
                 SPIN UP ORBITALS
  NO   OCC          E(Eh)            E(eV)
   0   1.0000     -10.243934      -278.7516
   1   1.0000     -10.235796      -278.5302
   2   1.0000     -10.229534      -278.3598
   3   1.0000     -10.222971      -278.1812
   4   1.0000     -10.219880      -278.0971
   5   1.0000     -10.219437      -278.0850
   6   1.0000     -10.217110      -278.0217
   7   1.0000     -10.216976      -278.0181
   8   1.0000     -10.215135      -277.9679
   9   1.0000     -10.212613      -277.8993
  10   1.0000     -10.212518      -277.8968
  11   1.0000     -10.212499      -277.8962
  12   1.0000     -10.210898      -277.8527
  13   1.0000     -10.209956      -277.8270
  14   1.0000     -10.201265      -277.5905
  15   1.0000     -10.192753      -277.3589
  16   1.0000     -10.191173      -277.3159
  17   1.0000     -10.189627      -277.2739
  18   1.0000     -10.187882      -277.2264
  19   1.0000     -10.184337      -277.1299
  20   1.0000     -10.180762      -277.0326
  21   1.0000     -10.178323      -276.9662
  22   1.0000     -10.170915      -276.7647
  23   1.0000     -10.168828      -276.7079
  24   1.0000      -0.892949       -24.2984
  25   1.0000      -0.882817       -24.0227
  26   1.0000      -0.833103       -22.6699
  27   1.0000      -0.814697       -22.1690
  28   1.0000      -0.802337       -21.8327
  29   1.0000      -0.796079       -21.6624
  30   1.0000      -0.777315       -21.1518
  31   1.0000      -0.769779       -20.9468
  32   1.0000      -0.753148       -20.4942
  33   1.0000      -0.738887       -20.1062
  34   1.0000      -0.717976       -19.5371
  35   1.0000      -0.706750       -19.2316
  36   1.0000      -0.663028       -18.0419
  37   1.0000      -0.657165       -17.8824
  38   1.0000      -0.632564       -17.2129
  39   1.0000      -0.629902       -17.1405
  40   1.0000      -0.627393       -17.0722
  41   1.0000      -0.601781       -16.3753
  42   1.0000      -0.585977       -15.9452
  43   1.0000      -0.572868       -15.5885
  44   1.0000      -0.557509       -15.1706
  45   1.0000      -0.524887       -14.2829
  46   1.0000      -0.522232       -14.2107
  47   1.0000      -0.498034       -13.5522
  48   1.0000      -0.492791       -13.4095
  49   1.0000      -0.480674       -13.0798
  50   1.0000      -0.476559       -12.9678
  51   1.0000      -0.475439       -12.9373
  52   1.0000      -0.453697       -12.3457
  53   1.0000      -0.445468       -12.1218
  54   1.0000      -0.442484       -12.0406
  55   1.0000      -0.435296       -11.8450
  56   1.0000      -0.434852       -11.8329
  57   1.0000      -0.429957       -11.6997
  58   1.0000      -0.423919       -11.5354
  59   1.0000      -0.418347       -11.3838
  60   1.0000      -0.409786       -11.1508
  61   1.0000      -0.403751       -10.9866
  62   1.0000      -0.391171       -10.6443
  63   1.0000      -0.382277       -10.4023
  64   1.0000      -0.378805       -10.3078
  65   1.0000      -0.374312       -10.1856
  66   1.0000      -0.369221       -10.0470
  67   1.0000      -0.367076        -9.9887
  68   1.0000      -0.366837        -9.9821
  69   1.0000      -0.353909        -9.6304
  70   1.0000      -0.344083        -9.3630
  71   1.0000      -0.341275        -9.2866
  72   1.0000      -0.336160        -9.1474
  73   1.0000      -0.332602        -9.0506
  74   1.0000      -0.330804        -9.0016
  75   1.0000      -0.330209        -8.9854
  76   1.0000      -0.326465        -8.8836
  77   1.0000      -0.310978        -8.4621
  78   1.0000      -0.291546        -7.9334
  79   1.0000      -0.277535        -7.5521
  80   1.0000      -0.265888        -7.2352
  81   1.0000      -0.262473        -7.1422
  82   1.0000      -0.243643        -6.6299
  83   1.0000      -0.242727        -6.6049
  84   1.0000      -0.218478        -5.9451
  85   0.0000      -0.080215        -2.1828
  86   0.0000      -0.028677        -0.7803
  87   0.0000      -0.028606        -0.7784
  88   0.0000      -0.019184        -0.5220
  89   0.0000       0.023079         0.6280

                 SPIN DOWN ORBITALS
  NO   OCC          E(Eh)            E(eV)
   0   1.0000     -10.240857      -278.6679
   1   1.0000     -10.236261      -278.5428
   2   1.0000     -10.229971      -278.3717
   3   1.0000     -10.220901      -278.1248
   4   1.0000     -10.220884      -278.1244
   5   1.0000     -10.217421      -278.0302
   6   1.0000     -10.216517      -278.0056
   7   1.0000     -10.216384      -278.0019
   8   1.0000     -10.214505      -277.9508
   9   1.0000     -10.213432      -277.9216
  10   1.0000     -10.212900      -277.9071
  11   1.0000     -10.212777      -277.9038
  12   1.0000     -10.211106      -277.8583
  13   1.0000     -10.209195      -277.8063
  14   1.0000     -10.201212      -277.5891
  15   1.0000     -10.192892      -277.3627
  16   1.0000     -10.191176      -277.3160
  17   1.0000     -10.189628      -277.2739
  18   1.0000     -10.187885      -277.2264
  19   1.0000     -10.184338      -277.1299
  20   1.0000     -10.180762      -277.0326
  21   1.0000     -10.178324      -276.9663
  22   1.0000     -10.166978      -276.6575
  23   1.0000     -10.164447      -276.5887
  24   1.0000      -0.890005       -24.2183
  25   1.0000      -0.881989       -24.0002
  26   1.0000      -0.830839       -22.6083
  27   1.0000      -0.812986       -22.1225
  28   1.0000      -0.801840       -21.8192
  29   1.0000      -0.793389       -21.5892
  30   1.0000      -0.776815       -21.1382
  31   1.0000      -0.769246       -20.9323
  32   1.0000      -0.749845       -20.4043
  33   1.0000      -0.737930       -20.0801
  34   1.0000      -0.711204       -19.3529
  35   1.0000      -0.698402       -19.0045
  36   1.0000      -0.662293       -18.0219
  37   1.0000      -0.652046       -17.7431
  38   1.0000      -0.629611       -17.1326
  39   1.0000      -0.629327       -17.1249
  40   1.0000      -0.626979       -17.0610
  41   1.0000      -0.600476       -16.3398
  42   1.0000      -0.585847       -15.9417
  43   1.0000      -0.572318       -15.5736
  44   1.0000      -0.556816       -15.1517
  45   1.0000      -0.523399       -14.2424
  46   1.0000      -0.519961       -14.1489
  47   1.0000      -0.497130       -13.5276
  48   1.0000      -0.491762       -13.3815
  49   1.0000      -0.480589       -13.0775
  50   1.0000      -0.476218       -12.9585
  51   1.0000      -0.474805       -12.9201
  52   1.0000      -0.453351       -12.3363
  53   1.0000      -0.444763       -12.1026
  54   1.0000      -0.442335       -12.0366
  55   1.0000      -0.434605       -11.8262
  56   1.0000      -0.432780       -11.7765
  57   1.0000      -0.429815       -11.6959
  58   1.0000      -0.422653       -11.5010
  59   1.0000      -0.418163       -11.3788
  60   1.0000      -0.409155       -11.1337
  61   1.0000      -0.400771       -10.9055
  62   1.0000      -0.386770       -10.5245
  63   1.0000      -0.381690       -10.3863
  64   1.0000      -0.378357       -10.2956
  65   1.0000      -0.374233       -10.1834
  66   1.0000      -0.368905       -10.0384
  67   1.0000      -0.366315        -9.9679
  68   1.0000      -0.364738        -9.9250
  69   1.0000      -0.351647        -9.5688
  70   1.0000      -0.341169        -9.2837
  71   1.0000      -0.336797        -9.1647
  72   1.0000      -0.336141        -9.1469
  73   1.0000      -0.332514        -9.0482
  74   1.0000      -0.330593        -8.9959
  75   1.0000      -0.329834        -8.9752
  76   1.0000      -0.325984        -8.8705
  77   1.0000      -0.297236        -8.0882
  78   1.0000      -0.290658        -7.9092
  79   1.0000      -0.276052        -7.5118
  80   1.0000      -0.261538        -7.1168
  81   1.0000      -0.244661        -6.6576
  82   1.0000      -0.236284        -6.4296
  83   1.0000      -0.234292        -6.3754
  84   0.0000      -0.153136        -4.1670
  85   0.0000      -0.069209        -1.8833
  86   0.0000      -0.027137        -0.7384
  87   0.0000      -0.017989        -0.4895
  88   0.0000      -0.012616        -0.3433

MULLIKEN ATOMIC CHARGES AND SPIN POPULATIONS
--------------------------------------------
   0 C :   -0.275164    0.310442
   1 C :   -0.101151    0.289126
   2 C :    0.291321   -0.075732
   3 C :    0.080243   -0.028500
   4 C :   -0.056833    0.143626
   5 C :    0.015933   -0.085454
   6 C :   -0.167413    0.208187
   7 C :   -0.063857   -0.074278
   8 C :    0.047830    0.119725
   9 H :   -0.046458    0.002730
  10 H :   -0.032824   -0.005588
  11 C :    0.058553   -0.013020
  12 H :    0.044232    0.007118
  13 H :    0.044149    0.007134
  14 C :   -0.040388    0.000353
  15 H :    0.014566   -0.000070
  16 H :    0.014540   -0.000070
  17 C :   -0.024423    0.000032
  18 H :    0.011316   -0.000010
  19 H :    0.011342   -0.000010
  20 C :    0.002234   -0.000049
  21 H :    0.016100    0.000013
  22 H :    0.016095    0.000013
  23 C :    0.038099    0.004854
  24 H :    0.033729   -0.002013
  25 H :    0.033747   -0.002010
  26 C :   -0.036202   -0.000368
  27 H :    0.021865    0.000026
  28 H :    0.021849    0.000026
  29 C :   -0.027457   -0.000042
  30 H :    0.005612    0.000009
  31 H :    0.005613    0.000010
  32 C :    0.003240    0.000016
  33 H :    0.020705   -0.000005
  34 H :    0.020722   -0.000005
  35 C :    0.161743    0.143534
  36 H :    0.015880   -0.000004
  37 H :    0.014065   -0.000003
  38 C :   -0.265024   -0.029179
  39 C :    0.036799    0.039885
  40 C :    0.041947   -0.021222
  41 C :    0.039013    0.046061
  42 C :    0.041802   -0.021213
  43 C :    0.033869    0.039853
  44 H :   -0.018210   -0.002058
  45 H :   -0.019500    0.000820
  46 H :   -0.032469   -0.001755
  47 H :   -0.031980   -0.001755
  48 H :   -0.019403    0.000821
Sum of atomic charges         :   -0.0000000

LOEWDIN ATOMIC CHARGES AND SPIN POPULATIONS
-------------------------------------------
   0 C :   -0.159571    0.323569
   1 C :   -0.110249    0.258263
   2 C :   -0.011819   -0.032212
   3 C :   -0.036842    0.001710
   4 C :    0.021070    0.111198
   5 C :   -0.004924   -0.047910
   6 C :   -0.017140    0.152637
   7 C :   -0.006443   -0.039349
   8 C :    0.020864    0.095188
   9 H :    0.032115   -0.000425
  10 H :    0.037742   -0.000237
  11 C :   -0.031134   -0.000001
  12 H :    0.047531    0.005190
  13 H :    0.047500    0.005201
  14 C :   -0.044709   -0.000167
  15 H :    0.023310   -0.000080
  16 H :    0.023303   -0.000080
  17 C :   -0.045677   -0.000019
  18 H :    0.026584    0.000026
  19 H :    0.026594    0.000026
  20 C :   -0.067599   -0.000028
  21 H :    0.024709    0.000009
  22 H :    0.024711    0.000009
  23 C :   -0.034495   -0.000214
  24 H :    0.039479   -0.001570
  25 H :    0.039487   -0.001567
  26 C :   -0.042481   -0.000066
  27 H :    0.026962    0.000056
  28 H :    0.026951    0.000056
  29 C :   -0.047262   -0.000033
  30 H :    0.023756   -0.000011
  31 H :    0.023756   -0.000011
  32 C :   -0.066494    0.000004
  33 H :    0.026823   -0.000003
  34 H :    0.026827   -0.000003
  35 C :    0.005824    0.110580
  36 H :    0.028924   -0.000005
  37 H :    0.028266   -0.000002
  38 C :   -0.056165   -0.013153
  39 C :    0.007406    0.031357
  40 C :   -0.019510   -0.012555
  41 C :   -0.008636    0.035890
  42 C :   -0.019705   -0.012550
  43 C :    0.006400    0.031316
  44 H :    0.032137    0.000093
  45 H :    0.032782   -0.000051
  46 H :    0.033175   -0.000012
  47 H :    0.032995   -0.000012
  48 H :    0.032873   -0.000050

  Mayer bond orders larger than 0.100000
B(  0-C ,  1-C ) :   2.8974 B(  1-C ,  3-C ) :   1.0563 B(  2-C ,  6-C ) :   0.9236
B(  2-C , 35-C ) :   1.6803 B(  2-C , 38-C ) :  -0.1840 B(  3-C ,  4-C ) :   1.2773
B(  3-C ,  8-C ) :   1.2760 B(  4-C ,  5-C ) :   1.4845 B(  4-C , 11-C ) :   1.1013
B(  5-C ,  6-C ) :   1.3301 B(  5-C ,  9-H ) :   0.9238 B(  6-C ,  7-C ) :   1.3305
B(  7-C ,  8-C ) :   1.4941 B(  7-C , 23-C ) :   1.0937 B(  8-C , 10-H ) :   0.9246
B( 11-C , 12-H ) :   0.8926 B( 11-C , 13-H ) :   0.8925 B( 11-C , 14-C ) :   1.1009
B( 14-C , 15-H ) :   0.9285 B( 14-C , 16-H ) :   0.9285 B( 14-C , 17-C ) :   1.0753
B( 17-C , 18-H ) :   0.9414 B( 17-C , 19-H ) :   0.9414 B( 17-C , 20-C ) :   1.1056
B( 20-C , 21-H ) :   0.9661 B( 20-C , 22-H ) :   0.9661 B( 20-C , 36-H ) :   0.9619
B( 23-C , 24-H ) :   0.8966 B( 23-C , 25-H ) :   0.8967 B( 23-C , 26-C ) :   1.1045
B( 26-C , 27-H ) :   0.9299 B( 26-C , 28-H ) :   0.9299 B( 26-C , 29-C ) :   1.0740
B( 29-C , 30-H ) :   0.9411 B( 29-C , 31-H ) :   0.9411 B( 29-C , 32-C ) :   1.1066
B( 32-C , 33-H ) :   0.9662 B( 32-C , 34-H ) :   0.9662 B( 32-C , 37-H ) :   0.9613
B( 35-C , 38-C ) :   0.9525 B( 38-C , 39-C ) :   1.4288 B( 38-C , 43-C ) :   1.4268
B( 39-C , 40-C ) :   1.4748 B( 39-C , 46-H ) :   0.9417 B( 40-C , 41-C ) :   1.4410
B( 40-C , 48-H ) :   0.9387 B( 41-C , 42-C ) :   1.4404 B( 41-C , 44-H ) :   0.9440
B( 42-C , 43-C ) :   1.4750 B( 42-C , 45-H ) :   0.9387 B( 43-C , 47-H ) :   0.9420

FINAL SINGLE POINT ENERGY      -928.844270819217

DIPOLE MOMENT
-------------
                                X             Y             Z
Electronic contribution:      8.91371      -0.21426       0.00239
Nuclear contribution   :     -5.17355       0.11416       0.00481
                        -----------------------------------------
Total Dipole Moment    :      3.74016      -0.10010       0.00719
                        -----------------------------------------
Magnitude (a.u.)       :      3.74151
Magnitude (Debye)      :      9.51016

Rotational constants in cm-1:     0.006498     0.004327     0.002607
Rotational constants in MHz :   194.800882   129.705298    78.164376

CHEMICAL SHIELDING SUMMARY (ppm)  --  Orbital contribution
----------------------------------------------------------

  Nucleus  Element    Isotropic     Anisotropy
  -------  -------  ------------   ------------
      9       H           24.047         13.509
     10       H           24.972          9.222
     12       H           28.767          7.239
     13       H           28.764          7.201
     15       H           29.803          4.804
     16       H           29.802          4.805
     18       H           29.840          7.094
     19       H           29.840          7.102
     21       H           30.311          7.602
     22       H           30.311          7.601
     24       H           28.546          6.114
     25       H           28.545          6.118
     27       H           29.727          5.389
     28       H           29.726          5.384
     30       H           29.811          6.108
     31       H           29.811          6.109
     33       H           30.251          8.198
     34       H           30.251          8.201
     36       H           30.057         10.194
     37       H           30.068         10.098
     44       H           24.048          4.637
     45       H           24.075          5.423
     46       H           23.845          7.457
     47       H           23.851          7.486
     48       H           24.050          5.178

                             ****ORCA TERMINATED NORMALLY****
TOTAL RUN TIME: 0 days 1 hours 20 minutes 59 seconds 927 msec
