                         Program Version 5.0.4 -  RELEASE  -
|  1> ! B3LYP cc-pVDZ AUTOAUX
|  2> %pal nprocs 16 end
|  3> *XYZFile 0 2 opt_cc-pVDZ.xyz
|  4> %EPRNMR
|  5>         GTENSOR   TRUE
|  6>         NUCLEI    = ALL H {SHIFT, AISO, ADIP, AORB}
|  7>         ORI       CenterOfElCharge
|  8> END
|  9>
| 10>                          ****END OF INPUT****

CARTESIAN COORDINATES (ANGSTROEM)
---------------------------------
  C     -4.099899    0.082567   -0.018222
  C     -2.815921    0.043418   -0.012229
  C      2.806049   -0.003031   -0.008541
  C     -1.423093    0.006863   -0.011428
  C     -0.707962   -1.246480   -0.013936
  C      0.676236   -1.193941   -0.012699
  C      1.390993    0.033560   -0.009300
  C      0.691892    1.284761   -0.006775
  C     -0.689981    1.235246   -0.007997
  H      1.260463   -2.113783   -0.014437
  H     -1.277924    2.152514   -0.006310
  C     -1.482008   -2.545169   -0.017734
  H     -2.162351   -2.531957   -0.888129
  H     -2.163386   -2.536406    0.851912
  C     -0.663838   -3.838606   -0.020482
  H     -0.000096   -3.863432   -0.904786
  H     -0.001596   -3.868106    0.864805
  C     -1.548663   -5.091379   -0.024540
  H     -2.215661   -5.067542    0.856707
  H     -2.213902   -5.063080   -0.906983
  C     -0.745911   -6.394552   -0.027052
  H     -0.097468   -6.468101    0.863227
  H     -0.095359   -6.463360   -0.916169
  C      1.475014    2.581762   -0.003063
  H      2.150207    2.572768    0.872597
  H      2.151368    2.577042   -0.877865
  C      0.659386    3.877214   -0.000463
  H     -0.002720    3.905301   -0.885088
  H     -0.004360    3.900769    0.883063
  C      1.544472    5.129641    0.003570
  H      2.209340    5.102453    0.886978
  H      2.211255    5.106769   -0.878515
  C      0.741225    6.432647    0.005903
  H      0.090431    6.500190    0.894528
  H      0.092772    6.504832   -0.884068
  C      4.030698   -0.050771   -0.009906
  H     -1.407951   -7.275432   -0.030188
  H      1.402772    7.313924    0.009079
  C      5.453343   -0.107447   -0.009657
  C      6.120738   -1.353300   -0.011991
  C      7.513356   -1.403494   -0.011667
  C      8.262125   -0.220420   -0.009064
  C      7.610872    1.019106   -0.006781
  C      6.218765    1.080757   -0.007089
  H      9.353658   -0.264543   -0.008825
  H      8.193249    1.943256   -0.004756
  H      5.532020   -2.272375   -0.014021
  H      5.705859    2.044207   -0.005329
  H      8.019799   -2.371347   -0.013462

 Total Charge           Charge          ....    0
 Multiplicity           Mult            ....    2
 Number of Electrons    NEL             ....  169
 Basis Dimension        Dim             ....  461

ORBITAL ENERGIES
----------------
                 SPIN UP ORBITALS
  NO   OCC          E(Eh)            E(eV)
   0   1.0000     -10.243942      -278.7518
   1   1.0000     -10.235712      -278.5279
   2   1.0000     -10.229500      -278.3589
   3   1.0000     -10.222995      -278.1818
   4   1.0000     -10.219902      -278.0977
   5   1.0000     -10.219338      -278.0823
   6   1.0000     -10.217110      -278.0217
   7   1.0000     -10.216969      -278.0179
   8   1.0000     -10.215164      -277.9688
   9   1.0000     -10.212642      -277.9001
  10   1.0000     -10.212569      -277.8981
  11   1.0000     -10.212523      -277.8969
  12   1.0000     -10.210887      -277.8524
  13   1.0000     -10.209949      -277.8268
  14   1.0000     -10.201279      -277.5909
  15   1.0000     -10.192761      -277.3591
  16   1.0000     -10.191178      -277.3161
  17   1.0000     -10.189628      -277.2739
  18   1.0000     -10.187881      -277.2263
  19   1.0000     -10.184339      -277.1300
  20   1.0000     -10.180763      -277.0326
  21   1.0000     -10.178322      -276.9662
  22   1.0000     -10.170850      -276.7629
  23   1.0000     -10.168889      -276.7095
  24   1.0000      -0.892950       -24.2984
  25   1.0000      -0.882807       -24.0224
  26   1.0000      -0.833104       -22.6699
  27   1.0000      -0.814692       -22.1689
  28   1.0000      -0.802336       -21.8327
  29   1.0000      -0.796064       -21.6620
  30   1.0000      -0.777316       -21.1518
  31   1.0000      -0.769781       -20.9468
  32   1.0000      -0.753141       -20.4940
  33   1.0000      -0.738888       -20.1062
  34   1.0000      -0.717972       -19.5370
  35   1.0000      -0.706751       -19.2317
  36   1.0000      -0.663029       -18.0419
  37   1.0000      -0.657160       -17.8822
  38   1.0000      -0.632557       -17.2128
  39   1.0000      -0.629903       -17.1405
  40   1.0000      -0.627387       -17.0721
  41   1.0000      -0.601780       -16.3753
  42   1.0000      -0.585978       -15.9453
  43   1.0000      -0.572868       -15.5885
  44   1.0000      -0.557497       -15.1703
  45   1.0000      -0.524892       -14.2830
  46   1.0000      -0.522221       -14.2104
  47   1.0000      -0.498024       -13.5519
  48   1.0000      -0.492790       -13.4095
  49   1.0000      -0.480676       -13.0799
  50   1.0000      -0.476554       -12.9677
  51   1.0000      -0.475439       -12.9374
  52   1.0000      -0.453692       -12.3456
  53   1.0000      -0.445465       -12.1217
  54   1.0000      -0.442485       -12.0406
  55   1.0000      -0.435301       -11.8451
  56   1.0000      -0.434853       -11.8330
  57   1.0000      -0.429958       -11.6997
  58   1.0000      -0.423920       -11.5354
  59   1.0000      -0.418347       -11.3838
  60   1.0000      -0.409786       -11.1508
  61   1.0000      -0.403738       -10.9863
  62   1.0000      -0.391170       -10.6443
  63   1.0000      -0.382277       -10.4023
  64   1.0000      -0.378806       -10.3078
  65   1.0000      -0.374314       -10.1856
  66   1.0000      -0.369219       -10.0470
  67   1.0000      -0.367076        -9.9886
  68   1.0000      -0.366838        -9.9822
  69   1.0000      -0.353910        -9.6304
  70   1.0000      -0.344076        -9.3628
  71   1.0000      -0.341277        -9.2866
  72   1.0000      -0.336161        -9.1474
  73   1.0000      -0.332603        -9.0506
  74   1.0000      -0.330805        -9.0017
  75   1.0000      -0.330209        -8.9854
  76   1.0000      -0.326464        -8.8835
  77   1.0000      -0.310967        -8.4619
  78   1.0000      -0.291530        -7.9329
  79   1.0000      -0.277536        -7.5521
  80   1.0000      -0.265889        -7.2352
  81   1.0000      -0.262470        -7.1422
  82   1.0000      -0.243666        -6.6305
  83   1.0000      -0.242728        -6.6050
  84   1.0000      -0.218472        -5.9449
  85   0.0000      -0.080211        -2.1827
  86   0.0000      -0.028673        -0.7802
  87   0.0000      -0.028606        -0.7784
  88   0.0000      -0.019187        -0.5221
  89   0.0000       0.023093         0.6284

                 SPIN DOWN ORBITALS
  NO   OCC          E(Eh)            E(eV)
   0   1.0000     -10.240865      -278.6681
   1   1.0000     -10.236176      -278.5405
   2   1.0000     -10.229937      -278.3707
   3   1.0000     -10.220924      -278.1255
   4   1.0000     -10.220908      -278.1250
   5   1.0000     -10.217330      -278.0277
   6   1.0000     -10.216518      -278.0056
   7   1.0000     -10.216378      -278.0018
   8   1.0000     -10.214535      -277.9516
   9   1.0000     -10.213475      -277.9228
  10   1.0000     -10.212928      -277.9079
  11   1.0000     -10.212801      -277.9044
  12   1.0000     -10.211099      -277.8581
  13   1.0000     -10.209184      -277.8060
  14   1.0000     -10.201225      -277.5895
  15   1.0000     -10.192901      -277.3629
  16   1.0000     -10.191182      -277.3162
  17   1.0000     -10.189629      -277.2739
  18   1.0000     -10.187884      -277.2264
  19   1.0000     -10.184340      -277.1300
  20   1.0000     -10.180763      -277.0326
  21   1.0000     -10.178323      -276.9663
  22   1.0000     -10.166906      -276.6556
  23   1.0000     -10.164514      -276.5905
  24   1.0000      -0.890006       -24.2183
  25   1.0000      -0.881979       -23.9999
  26   1.0000      -0.830841       -22.6083
  27   1.0000      -0.812981       -22.1223
  28   1.0000      -0.801839       -21.8191
  29   1.0000      -0.793374       -21.5888
  30   1.0000      -0.776817       -21.1383
  31   1.0000      -0.769248       -20.9323
  32   1.0000      -0.749837       -20.4041
  33   1.0000      -0.737930       -20.0801
  34   1.0000      -0.711204       -19.3528
  35   1.0000      -0.698398       -19.0044
  36   1.0000      -0.662294       -18.0219
  37   1.0000      -0.652042       -17.7430
  38   1.0000      -0.629607       -17.1325
  39   1.0000      -0.629327       -17.1248
  40   1.0000      -0.626973       -17.0608
  41   1.0000      -0.600476       -16.3398
  42   1.0000      -0.585848       -15.9417
  43   1.0000      -0.572318       -15.5736
  44   1.0000      -0.556804       -15.1514
  45   1.0000      -0.523405       -14.2426
  46   1.0000      -0.519950       -14.1486
  47   1.0000      -0.497121       -13.5274
  48   1.0000      -0.491761       -13.3815
  49   1.0000      -0.480591       -13.0776
  50   1.0000      -0.476213       -12.9584
  51   1.0000      -0.474806       -12.9201
  52   1.0000      -0.453345       -12.3362
  53   1.0000      -0.444760       -12.1025
  54   1.0000      -0.442336       -12.0366
  55   1.0000      -0.434609       -11.8263
  56   1.0000      -0.432782       -11.7766
  57   1.0000      -0.429816       -11.6959
  58   1.0000      -0.422654       -11.5010
  59   1.0000      -0.418163       -11.3788
  60   1.0000      -0.409155       -11.1337
  61   1.0000      -0.400758       -10.9052
  62   1.0000      -0.386770       -10.5245
  63   1.0000      -0.381689       -10.3863
  64   1.0000      -0.378358       -10.2956
  65   1.0000      -0.374235       -10.1834
  66   1.0000      -0.368902       -10.0383
  67   1.0000      -0.366316        -9.9680
  68   1.0000      -0.364739        -9.9250
  69   1.0000      -0.351649        -9.5689
  70   1.0000      -0.341171        -9.2837
  71   1.0000      -0.336789        -9.1645
  72   1.0000      -0.336142        -9.1469
  73   1.0000      -0.332515        -9.0482
  74   1.0000      -0.330593        -8.9959
  75   1.0000      -0.329834        -8.9752
  76   1.0000      -0.325983        -8.8704
  77   1.0000      -0.297226        -8.0879
  78   1.0000      -0.290643        -7.9088
  79   1.0000      -0.276054        -7.5118
  80   1.0000      -0.261540        -7.1169
  81   1.0000      -0.244653        -6.6574
  82   1.0000      -0.236280        -6.4295
  83   1.0000      -0.234321        -6.3762
  84   0.0000      -0.153132        -4.1669
  85   0.0000      -0.069206        -1.8832
  86   0.0000      -0.027137        -0.7384
  87   0.0000      -0.017986        -0.4894
  88   0.0000      -0.012618        -0.3434

MULLIKEN ATOMIC CHARGES AND SPIN POPULATIONS
--------------------------------------------
   0 C :   -0.275261    0.310458
   1 C :   -0.101038    0.289126
   2 C :    0.291180   -0.075688
   3 C :    0.080261   -0.028511
   4 C :   -0.056855    0.143622
   5 C :    0.015941   -0.085447
   6 C :   -0.167427    0.208173
   7 C :   -0.063879   -0.074292
   8 C :    0.047842    0.119750
   9 H :   -0.046457    0.002729
  10 H :   -0.032826   -0.005591
  11 C :    0.058551   -0.013020
  12 H :    0.044233    0.007118
  13 H :    0.044150    0.007134
  14 C :   -0.040387    0.000353
  15 H :    0.014566   -0.000070
  16 H :    0.014541   -0.000070
  17 C :   -0.024424    0.000032
  18 H :    0.011316   -0.000010
  19 H :    0.011342   -0.000010
  20 C :    0.002234   -0.000049
  21 H :    0.016100    0.000013
  22 H :    0.016095    0.000013
  23 C :    0.038093    0.004858
  24 H :    0.033732   -0.002014
  25 H :    0.033750   -0.002011
  26 C :   -0.036203   -0.000369
  27 H :    0.021866    0.000026
  28 H :    0.021849    0.000026
  29 C :   -0.027456   -0.000042
  30 H :    0.005613    0.000009
  31 H :    0.005613    0.000010
  32 C :    0.003240    0.000016
  33 H :    0.020705   -0.000005
  34 H :    0.020723   -0.000005
  35 C :    0.161874    0.143491
  36 H :    0.015880   -0.000004
  37 H :    0.014065   -0.000003
  38 C :   -0.264957   -0.029151
  39 C :    0.036798    0.039857
  40 C :    0.041931   -0.021196
  41 C :    0.038997    0.046032
  42 C :    0.041783   -0.021187
  43 C :    0.033863    0.039825
  44 H :   -0.018206   -0.002056
  45 H :   -0.019497    0.000819
  46 H :   -0.032471   -0.001753
  47 H :   -0.031982   -0.001753
  48 H :   -0.019400    0.000819
Sum of atomic charges         :   -0.0000000

LOEWDIN ATOMIC CHARGES AND SPIN POPULATIONS
-------------------------------------------
   0 C :   -0.159634    0.323584
   1 C :   -0.110181    0.258263
   2 C :   -0.011892   -0.032184
   3 C :   -0.036824    0.001704
   4 C :    0.021058    0.111195
   5 C :   -0.004923   -0.047906
   6 C :   -0.017153    0.152630
   7 C :   -0.006459   -0.039357
   8 C :    0.020873    0.095204
   9 H :    0.032115   -0.000425
  10 H :    0.037742   -0.000237
  11 C :   -0.031135   -0.000000
  12 H :    0.047531    0.005190
  13 H :    0.047501    0.005201
  14 C :   -0.044709   -0.000167
  15 H :    0.023310   -0.000080
  16 H :    0.023303   -0.000080
  17 C :   -0.045678   -0.000019
  18 H :    0.026584    0.000026
  19 H :    0.026594    0.000026
  20 C :   -0.067599   -0.000028
  21 H :    0.024709    0.000009
  22 H :    0.024711    0.000009
  23 C :   -0.034499   -0.000213
  24 H :    0.039480   -0.001570
  25 H :    0.039488   -0.001568
  26 C :   -0.042481   -0.000066
  27 H :    0.026963    0.000056
  28 H :    0.026952    0.000056
  29 C :   -0.047261   -0.000033
  30 H :    0.023757   -0.000011
  31 H :    0.023756   -0.000011
  32 C :   -0.066494    0.000004
  33 H :    0.026823   -0.000003
  34 H :    0.026827   -0.000003
  35 C :    0.005901    0.110553
  36 H :    0.028924   -0.000005
  37 H :    0.028266   -0.000002
  38 C :   -0.056124   -0.013138
  39 C :    0.007407    0.031337
  40 C :   -0.019522   -0.012539
  41 C :   -0.008649    0.035870
  42 C :   -0.019719   -0.012533
  43 C :    0.006398    0.031296
  44 H :    0.032139    0.000093
  45 H :    0.032783   -0.000051
  46 H :    0.033174   -0.000012
  47 H :    0.032994   -0.000012
  48 H :    0.032874   -0.000051

  Mayer bond orders larger than 0.100000
B(  0-C ,  1-C ) :   2.8974 B(  1-C ,  3-C ) :   1.0563 B(  2-C ,  6-C ) :   0.9236
B(  2-C , 35-C ) :   1.6803 B(  2-C , 38-C ) :  -0.1840 B(  3-C ,  4-C ) :   1.2773
B(  3-C ,  8-C ) :   1.2760 B(  4-C ,  5-C ) :   1.4845 B(  4-C , 11-C ) :   1.1013
B(  5-C ,  6-C ) :   1.3301 B(  5-C ,  9-H ) :   0.9238 B(  6-C ,  7-C ) :   1.3305
B(  7-C ,  8-C ) :   1.4941 B(  7-C , 23-C ) :   1.0937 B(  8-C , 10-H ) :   0.9246
B( 11-C , 12-H ) :   0.8926 B( 11-C , 13-H ) :   0.8925 B( 11-C , 14-C ) :   1.1009
B( 14-C , 15-H ) :   0.9285 B( 14-C , 16-H ) :   0.9285 B( 14-C , 17-C ) :   1.0753
B( 17-C , 18-H ) :   0.9414 B( 17-C , 19-H ) :   0.9414 B( 17-C , 20-C ) :   1.1056
B( 20-C , 21-H ) :   0.9661 B( 20-C , 22-H ) :   0.9661 B( 20-C , 36-H ) :   0.9619
B( 23-C , 24-H ) :   0.8966 B( 23-C , 25-H ) :   0.8967 B( 23-C , 26-C ) :   1.1045
B( 26-C , 27-H ) :   0.9299 B( 26-C , 28-H ) :   0.9299 B( 26-C , 29-C ) :   1.0740
B( 29-C , 30-H ) :   0.9411 B( 29-C , 31-H ) :   0.9411 B( 29-C , 32-C ) :   1.1066
B( 32-C , 33-H ) :   0.9662 B( 32-C , 34-H ) :   0.9662 B( 32-C , 37-H ) :   0.9613
B( 35-C , 38-C ) :   0.9525 B( 38-C , 39-C ) :   1.4288 B( 38-C , 43-C ) :   1.4268
B( 39-C , 40-C ) :   1.4748 B( 39-C , 46-H ) :   0.9417 B( 40-C , 41-C ) :   1.4410
B( 40-C , 48-H ) :   0.9387 B( 41-C , 42-C ) :   1.4404 B( 41-C , 44-H ) :   0.9440
B( 42-C , 43-C ) :   1.4750 B( 42-C , 45-H ) :   0.9387 B( 43-C , 47-H ) :   0.9420

FINAL SINGLE POINT ENERGY      -928.844271712348

DIPOLE MOMENT
-------------
                                X             Y             Z
Electronic contribution:      8.91382      -0.21427       0.00240
Nuclear contribution   :     -5.17355       0.11416       0.00481
                        -----------------------------------------
Total Dipole Moment    :      3.74027      -0.10011       0.00720
                        -----------------------------------------
Magnitude (a.u.)       :      3.74162
Magnitude (Debye)      :      9.51044

Rotational constants in cm-1:     0.006498     0.004327     0.002607
Rotational constants in MHz :   194.800882   129.705298    78.164376

CHEMICAL SHIELDING SUMMARY (ppm)  --  Orbital contribution
----------------------------------------------------------

  Nucleus  Element    Isotropic     Anisotropy
  -------  -------  ------------   ------------
      9       H          100.603         13.957
     10       H           34.208         41.496
     12       H           28.595         53.663
     13       H           28.546         53.669
     15       H          102.357         15.695
     16       H          102.288         15.711
     18       H            0.875         31.326
     19       H            0.937         31.322
     21       H           43.939         13.306
     22       H           44.030         13.274
     24       H           98.945         32.240
     25       H           98.991         32.241
     27       H           56.015         31.161
     28       H           55.978         31.155
     30       H           56.649         19.885
     31       H           56.698         19.861
     33       H            5.645         23.329
     34       H            5.669         23.338
     36       H          -81.307        -71.526
     37       H          -51.342         25.302
     44       H         -124.415       -174.129
     45       H          -55.808          1.883
     46       H           91.404         18.585
     47       H           87.746         20.652
     48       H          -52.008          3.396

                             ****ORCA TERMINATED NORMALLY****
TOTAL RUN TIME: 0 days 1 hours 22 minutes 17 seconds 293 msec
