                         Program Version 5.0.4 -  RELEASE  -
|  1> ! B3LYP cc-pVDZ AUTOAUX
|  2> %pal nprocs 16 end
|  3> *XYZFile 0 2 opt.xyz
|  4> %EPRNMR
|  5>         GTENSOR   TRUE
|  6>         NUCLEI    = ALL H {SHIFT, AISO, ADIP, AORB}
|  7>         ORI       CenterOfElCharge
|  8> END
|  9>
| 10>                          ****END OF INPUT****

CARTESIAN COORDINATES (ANGSTROEM)
---------------------------------
  C     -4.099903    0.083492   -0.018353
  C     -2.815946    0.043661   -0.012330
  C      2.806008   -0.004269   -0.008539
  C     -1.423131    0.006681   -0.011521
  C     -0.708303   -1.246812   -0.013959
  C      0.675892   -1.194656   -0.012684
  C      1.390969    0.032616   -0.009322
  C      0.692187    1.284040   -0.006826
  C     -0.689714    1.234894   -0.008082
  H      1.259776   -2.114722   -0.014385
  H     -1.277365    2.152363   -0.006417
  C     -1.482678   -2.545270   -0.017742
  H     -2.162956   -2.531884   -0.888087
  H     -2.164001   -2.536305    0.851848
  C     -0.664773   -3.838900   -0.020463
  H     -0.001060   -3.863836   -0.904705
  H     -0.002550   -3.868472    0.864757
  C     -1.549765   -5.091581   -0.024486
  H     -2.216738   -5.067647    0.856694
  H     -2.214979   -5.063238   -0.906864
  C     -0.747242   -6.394947   -0.026958
  H     -0.098785   -6.468624    0.863263
  H     -0.096713   -6.463963   -0.916039
  C      1.475610    2.580851   -0.003105
  H      2.150780    2.571663    0.872485
  H      2.151902    2.575969   -0.877872
  C      0.660276    3.876516   -0.000466
  H     -0.001813    3.904739   -0.885019
  H     -0.003430    3.900164    0.883007
  C      1.545553    5.128838    0.003581
  H      2.210398    5.101571    0.886923
  H      2.212314    5.105900   -0.878438
  C      0.742544    6.432044    0.005924
  H      0.091762    6.499753    0.894507
  H      0.094086    6.504395   -0.883993
  C      4.030665   -0.051608   -0.009917
  H     -1.409442   -7.275742   -0.030044
  H      1.404248    7.313240    0.009096
  C      5.453353   -0.107226   -0.009647
  C      6.121835   -1.352501   -0.012193
  C      7.514506   -1.401458   -0.011853
  C      8.262259   -0.217737   -0.009063
  C      7.609924    1.021237   -0.006590
  C      6.217754    1.081653   -0.006879
  H      9.353772   -0.260949   -0.008833
  H      8.191473    1.945911   -0.004438
  H      5.533939   -2.272105   -0.014369
  H      5.703998    2.044629   -0.004992
  H      8.021809   -2.368853   -0.013791

 Total Charge           Charge          ....    0
 Multiplicity           Mult            ....    2
 Number of Electrons    NEL             ....  169
 Basis Dimension        Dim             ....  461

ORBITAL ENERGIES
----------------
                 SPIN UP ORBITALS
  NO   OCC          E(Eh)            E(eV)
   0   1.0000     -10.243936      -278.7517
   1   1.0000     -10.235796      -278.5302
   2   1.0000     -10.229532      -278.3597
   3   1.0000     -10.222983      -278.1815
   4   1.0000     -10.219877      -278.0970
   5   1.0000     -10.219436      -278.0850
   6   1.0000     -10.217115      -278.0218
   7   1.0000     -10.216972      -278.0179
   8   1.0000     -10.215135      -277.9679
   9   1.0000     -10.212612      -277.8993
  10   1.0000     -10.212520      -277.8968
  11   1.0000     -10.212499      -277.8962
  12   1.0000     -10.210890      -277.8524
  13   1.0000     -10.209964      -277.8272
  14   1.0000     -10.201256      -277.5903
  15   1.0000     -10.192747      -277.3587
  16   1.0000     -10.191174      -277.3160
  17   1.0000     -10.189632      -277.2740
  18   1.0000     -10.187884      -277.2264
  19   1.0000     -10.184341      -277.1300
  20   1.0000     -10.180760      -277.0326
  21   1.0000     -10.178321      -276.9662
  22   1.0000     -10.170912      -276.7646
  23   1.0000     -10.168826      -276.7078
  24   1.0000      -0.892953       -24.2985
  25   1.0000      -0.882812       -24.0225
  26   1.0000      -0.833109       -22.6701
  27   1.0000      -0.814699       -22.1691
  28   1.0000      -0.802337       -21.8327
  29   1.0000      -0.796081       -21.6625
  30   1.0000      -0.777315       -21.1518
  31   1.0000      -0.769776       -20.9467
  32   1.0000      -0.753152       -20.4943
  33   1.0000      -0.738894       -20.1063
  34   1.0000      -0.717976       -19.5371
  35   1.0000      -0.706751       -19.2317
  36   1.0000      -0.663040       -18.0422
  37   1.0000      -0.657170       -17.8825
  38   1.0000      -0.632568       -17.2130
  39   1.0000      -0.629919       -17.1410
  40   1.0000      -0.627392       -17.0722
  41   1.0000      -0.601793       -16.3756
  42   1.0000      -0.586002       -15.9459
  43   1.0000      -0.572884       -15.5890
  44   1.0000      -0.557510       -15.1706
  45   1.0000      -0.524896       -14.2831
  46   1.0000      -0.522235       -14.2107
  47   1.0000      -0.498041       -13.5524
  48   1.0000      -0.492797       -13.4097
  49   1.0000      -0.480678       -13.0799
  50   1.0000      -0.476556       -12.9677
  51   1.0000      -0.475448       -12.9376
  52   1.0000      -0.453698       -12.3458
  53   1.0000      -0.445474       -12.1220
  54   1.0000      -0.442483       -12.0406
  55   1.0000      -0.435297       -11.8450
  56   1.0000      -0.434858       -11.8331
  57   1.0000      -0.429954       -11.6996
  58   1.0000      -0.423930       -11.5357
  59   1.0000      -0.418343       -11.3837
  60   1.0000      -0.409789       -11.1509
  61   1.0000      -0.403750       -10.9866
  62   1.0000      -0.391175       -10.6444
  63   1.0000      -0.382279       -10.4023
  64   1.0000      -0.378811       -10.3080
  65   1.0000      -0.374318       -10.1857
  66   1.0000      -0.369223       -10.0471
  67   1.0000      -0.367088        -9.9890
  68   1.0000      -0.366845        -9.9824
  69   1.0000      -0.353921        -9.6307
  70   1.0000      -0.344090        -9.3632
  71   1.0000      -0.341277        -9.2866
  72   1.0000      -0.336166        -9.1475
  73   1.0000      -0.332607        -9.0507
  74   1.0000      -0.330815        -9.0019
  75   1.0000      -0.330217        -8.9857
  76   1.0000      -0.326476        -8.8839
  77   1.0000      -0.310981        -8.4622
  78   1.0000      -0.291550        -7.9335
  79   1.0000      -0.277533        -7.5521
  80   1.0000      -0.265888        -7.2352
  81   1.0000      -0.262476        -7.1423
  82   1.0000      -0.243637        -6.6297
  83   1.0000      -0.242733        -6.6051
  84   1.0000      -0.218479        -5.9451
  85   0.0000      -0.080217        -2.1828
  86   0.0000      -0.028679        -0.7804
  87   0.0000      -0.028608        -0.7785
  88   0.0000      -0.019184        -0.5220
  89   0.0000       0.023079         0.6280

                 SPIN DOWN ORBITALS
  NO   OCC          E(Eh)            E(eV)
   0   1.0000     -10.240858      -278.6679
   1   1.0000     -10.236260      -278.5428
   2   1.0000     -10.229969      -278.3716
   3   1.0000     -10.220907      -278.1250
   4   1.0000     -10.220887      -278.1245
   5   1.0000     -10.217421      -278.0302
   6   1.0000     -10.216523      -278.0057
   7   1.0000     -10.216379      -278.0018
   8   1.0000     -10.214505      -277.9508
   9   1.0000     -10.213433      -277.9217
  10   1.0000     -10.212899      -277.9071
  11   1.0000     -10.212777      -277.9038
  12   1.0000     -10.211114      -277.8586
  13   1.0000     -10.209187      -277.8061
  14   1.0000     -10.201203      -277.5888
  15   1.0000     -10.192886      -277.3625
  16   1.0000     -10.191178      -277.3160
  17   1.0000     -10.189633      -277.2740
  18   1.0000     -10.187886      -277.2265
  19   1.0000     -10.184342      -277.1300
  20   1.0000     -10.180760      -277.0326
  21   1.0000     -10.178322      -276.9662
  22   1.0000     -10.166975      -276.6575
  23   1.0000     -10.164445      -276.5886
  24   1.0000      -0.890009       -24.2184
  25   1.0000      -0.881985       -24.0000
  26   1.0000      -0.830845       -22.6085
  27   1.0000      -0.812988       -22.1225
  28   1.0000      -0.801840       -21.8192
  29   1.0000      -0.793390       -21.5892
  30   1.0000      -0.776816       -21.1382
  31   1.0000      -0.769243       -20.9322
  32   1.0000      -0.749849       -20.4044
  33   1.0000      -0.737937       -20.0803
  34   1.0000      -0.711205       -19.3529
  35   1.0000      -0.698403       -19.0045
  36   1.0000      -0.662305       -18.0222
  37   1.0000      -0.652052       -17.7432
  38   1.0000      -0.629617       -17.1327
  39   1.0000      -0.629341       -17.1253
  40   1.0000      -0.626978       -17.0609
  41   1.0000      -0.600489       -16.3401
  42   1.0000      -0.585872       -15.9424
  43   1.0000      -0.572334       -15.5740
  44   1.0000      -0.556817       -15.1517
  45   1.0000      -0.523409       -14.2427
  46   1.0000      -0.519963       -14.1489
  47   1.0000      -0.497138       -13.5278
  48   1.0000      -0.491768       -13.3817
  49   1.0000      -0.480593       -13.0776
  50   1.0000      -0.476215       -12.9585
  51   1.0000      -0.474815       -12.9204
  52   1.0000      -0.453352       -12.3363
  53   1.0000      -0.444769       -12.1028
  54   1.0000      -0.442335       -12.0365
  55   1.0000      -0.434605       -11.8262
  56   1.0000      -0.432786       -11.7767
  57   1.0000      -0.429812       -11.6958
  58   1.0000      -0.422665       -11.5013
  59   1.0000      -0.418160       -11.3787
  60   1.0000      -0.409158       -11.1338
  61   1.0000      -0.400770       -10.9055
  62   1.0000      -0.386774       -10.5247
  63   1.0000      -0.381692       -10.3864
  64   1.0000      -0.378363       -10.2958
  65   1.0000      -0.374238       -10.1835
  66   1.0000      -0.368906       -10.0384
  67   1.0000      -0.366323        -9.9682
  68   1.0000      -0.364751        -9.9254
  69   1.0000      -0.351661        -9.5692
  70   1.0000      -0.341171        -9.2837
  71   1.0000      -0.336802        -9.1649
  72   1.0000      -0.336147        -9.1470
  73   1.0000      -0.332518        -9.0483
  74   1.0000      -0.330604        -8.9962
  75   1.0000      -0.329842        -8.9755
  76   1.0000      -0.325995        -8.8708
  77   1.0000      -0.297240        -8.0883
  78   1.0000      -0.290662        -7.9093
  79   1.0000      -0.276050        -7.5117
  80   1.0000      -0.261541        -7.1169
  81   1.0000      -0.244661        -6.6576
  82   1.0000      -0.236282        -6.4296
  83   1.0000      -0.234294        -6.3755
  84   0.0000      -0.153136        -4.1671
  85   0.0000      -0.069211        -1.8833
  86   0.0000      -0.027139        -0.7385
  87   0.0000      -0.017991        -0.4896
  88   0.0000      -0.012617        -0.3433

MULLIKEN ATOMIC CHARGES AND SPIN POPULATIONS
--------------------------------------------
   0 C :   -0.275160    0.310442
   1 C :   -0.101166    0.289127
   2 C :    0.291395   -0.075728
   3 C :    0.080261   -0.028500
   4 C :   -0.056875    0.143628
   5 C :    0.015965   -0.085451
   6 C :   -0.167419    0.208185
   7 C :   -0.063906   -0.074280
   8 C :    0.047807    0.119722
   9 H :   -0.046451    0.002730
  10 H :   -0.032818   -0.005588
  11 C :    0.058624   -0.013019
  12 H :    0.044221    0.007118
  13 H :    0.044138    0.007134
  14 C :   -0.040395    0.000353
  15 H :    0.014562   -0.000070
  16 H :    0.014537   -0.000070
  17 C :   -0.024389    0.000032
  18 H :    0.011311   -0.000010
  19 H :    0.011337   -0.000010
  20 C :    0.002218   -0.000049
  21 H :    0.016096    0.000013
  22 H :    0.016092    0.000013
  23 C :    0.038142    0.004854
  24 H :    0.033724   -0.002013
  25 H :    0.033743   -0.002010
  26 C :   -0.036197   -0.000368
  27 H :    0.021860    0.000026
  28 H :    0.021842    0.000026
  29 C :   -0.027432   -0.000042
  30 H :    0.005608    0.000009
  31 H :    0.005608    0.000010
  32 C :    0.003223    0.000016
  33 H :    0.020701   -0.000005
  34 H :    0.020719   -0.000005
  35 C :    0.161713    0.143529
  36 H :    0.015884   -0.000004
  37 H :    0.014069   -0.000003
  38 C :   -0.265058   -0.029178
  39 C :    0.036794    0.039885
  40 C :    0.041943   -0.021221
  41 C :    0.039036    0.046061
  42 C :    0.041798   -0.021212
  43 C :    0.033876    0.039852
  44 H :   -0.018224   -0.002058
  45 H :   -0.019500    0.000820
  46 H :   -0.032474   -0.001755
  47 H :   -0.031979   -0.001756
  48 H :   -0.019403    0.000821
Sum of atomic charges         :   -0.0000000

LOEWDIN ATOMIC CHARGES AND SPIN POPULATIONS
-------------------------------------------
   0 C :   -0.159569    0.323568
   1 C :   -0.110248    0.258264
   2 C :   -0.011821   -0.032211
   3 C :   -0.036840    0.001711
   4 C :    0.021065    0.111199
   5 C :   -0.004940   -0.047906
   6 C :   -0.017140    0.152636
   7 C :   -0.006417   -0.039353
   8 C :    0.020867    0.095186
   9 H :    0.032120   -0.000425
  10 H :    0.037743   -0.000237
  11 C :   -0.031114    0.000001
  12 H :    0.047519    0.005189
  13 H :    0.047489    0.005201
  14 C :   -0.044695   -0.000167
  15 H :    0.023302   -0.000080
  16 H :    0.023295   -0.000080
  17 C :   -0.045665   -0.000019
  18 H :    0.026576    0.000026
  19 H :    0.026587    0.000026
  20 C :   -0.067593   -0.000028
  21 H :    0.024703    0.000009
  22 H :    0.024704    0.000009
  23 C :   -0.034482   -0.000214
  24 H :    0.039467   -0.001570
  25 H :    0.039477   -0.001567
  26 C :   -0.042468   -0.000066
  27 H :    0.026954    0.000056
  28 H :    0.026943    0.000056
  29 C :   -0.047249   -0.000033
  30 H :    0.023748   -0.000011
  31 H :    0.023748   -0.000011
  32 C :   -0.066488    0.000004
  33 H :    0.026816   -0.000003
  34 H :    0.026820   -0.000003
  35 C :    0.005825    0.110579
  36 H :    0.028932   -0.000005
  37 H :    0.028274   -0.000002
  38 C :   -0.056160   -0.013154
  39 C :    0.007398    0.031358
  40 C :   -0.019504   -0.012555
  41 C :   -0.008632    0.035890
  42 C :   -0.019698   -0.012550
  43 C :    0.006409    0.031315
  44 H :    0.032125    0.000093
  45 H :    0.032781   -0.000051
  46 H :    0.033171   -0.000012
  47 H :    0.032994   -0.000012
  48 H :    0.032871   -0.000050

  Mayer bond orders larger than 0.100000
B(  0-C ,  1-C ) :   2.8974 B(  1-C ,  3-C ) :   1.0563 B(  2-C ,  6-C ) :   0.9236
B(  2-C , 35-C ) :   1.6802 B(  2-C , 38-C ) :  -0.1840 B(  3-C ,  4-C ) :   1.2773
B(  3-C ,  8-C ) :   1.2760 B(  4-C ,  5-C ) :   1.4846 B(  4-C , 11-C ) :   1.1014
B(  5-C ,  6-C ) :   1.3300 B(  5-C ,  9-H ) :   0.9238 B(  6-C ,  7-C ) :   1.3305
B(  7-C ,  8-C ) :   1.4941 B(  7-C , 23-C ) :   1.0937 B(  8-C , 10-H ) :   0.9246
B( 11-C , 12-H ) :   0.8926 B( 11-C , 13-H ) :   0.8925 B( 11-C , 14-C ) :   1.1009
B( 14-C , 15-H ) :   0.9285 B( 14-C , 16-H ) :   0.9285 B( 14-C , 17-C ) :   1.0753
B( 17-C , 18-H ) :   0.9414 B( 17-C , 19-H ) :   0.9414 B( 17-C , 20-C ) :   1.1056
B( 20-C , 21-H ) :   0.9661 B( 20-C , 22-H ) :   0.9661 B( 20-C , 36-H ) :   0.9619
B( 23-C , 24-H ) :   0.8966 B( 23-C , 25-H ) :   0.8967 B( 23-C , 26-C ) :   1.1045
B( 26-C , 27-H ) :   0.9299 B( 26-C , 28-H ) :   0.9299 B( 26-C , 29-C ) :   1.0740
B( 29-C , 30-H ) :   0.9411 B( 29-C , 31-H ) :   0.9411 B( 29-C , 32-C ) :   1.1066
B( 32-C , 33-H ) :   0.9662 B( 32-C , 34-H ) :   0.9662 B( 32-C , 37-H ) :   0.9613
B( 35-C , 38-C ) :   0.9525 B( 38-C , 39-C ) :   1.4288 B( 38-C , 43-C ) :   1.4269
B( 39-C , 40-C ) :   1.4748 B( 39-C , 46-H ) :   0.9417 B( 40-C , 41-C ) :   1.4410
B( 40-C , 48-H ) :   0.9387 B( 41-C , 42-C ) :   1.4404 B( 41-C , 44-H ) :   0.9440
B( 42-C , 43-C ) :   1.4750 B( 42-C , 45-H ) :   0.9387 B( 43-C , 47-H ) :   0.9420

FINAL SINGLE POINT ENERGY      -928.844275207701

DIPOLE MOMENT
-------------
                                X             Y             Z
Electronic contribution:      8.91370      -0.21331       0.00186
Nuclear contribution   :     -5.17354       0.11309       0.00539
                        -----------------------------------------
Total Dipole Moment    :      3.74017      -0.10022       0.00724
                        -----------------------------------------
Magnitude (a.u.)       :      3.74151
Magnitude (Debye)      :      9.51017

Rotational constants in cm-1:     0.006500     0.004325     0.002607
Rotational constants in MHz :   194.876145   129.670307    78.163739

CHEMICAL SHIELDING SUMMARY (ppm)  --  Orbital contribution
----------------------------------------------------------

  Nucleus  Element    Isotropic     Anisotropy
  -------  -------  ------------   ------------
      9       H          100.570         13.944
     10       H           34.236         41.484
     12       H           28.582         53.655
     13       H           28.534         53.662
     15       H          102.352         15.690
     16       H          102.285         15.704
     18       H            0.863         31.326
     19       H            0.923         31.321
     21       H           43.934         13.302
     22       H           44.018         13.273
     24       H           98.968         32.258
     25       H           99.010         32.259
     27       H           56.029         31.167
     28       H           55.995         31.161
     30       H           56.657         19.895
     31       H           56.706         19.870
     33       H            5.654         23.331
     34       H            5.678         23.340
     36       H          -81.319        -71.527
     37       H          -51.321         25.300
     44       H         -124.429       -174.218
     45       H          -55.733          1.902
     46       H           91.317         18.573
     47       H           87.835         20.668
     48       H          -52.086          3.380

                             ****ORCA TERMINATED NORMALLY****
TOTAL RUN TIME: 0 days 1 hours 21 minutes 43 seconds 202 msec
