                         Program Version 4.2.1 -  RELEASE  -
|  1> ! B3LYP cc-pVDZ AUTOAUX
|  2> %pal nprocs 16 end
|  3> *XYZFile 0 2 opt.xyz
|  4> %EPRNMR
|  5>         GTENSOR   TRUE
|  6>         NUCLEI    = ALL H {AISO, ADIP, AORB}
|  7> END
|  8>
|  9>                          ****END OF INPUT****

CARTESIAN COORDINATES (ANGSTROEM)
---------------------------------
  C     -4.098967    0.087649   -0.018603
  C     -2.815047    0.044667   -0.012458
  C      2.806862   -0.008947   -0.008584
  C     -1.422247    0.005174   -0.011616
  C     -0.708894   -1.249265   -0.014028
  C      0.675479   -1.198923   -0.012845
  C      1.391746    0.027780   -0.009474
  C      0.694256    1.279949   -0.007020
  C     -0.687609    1.232598   -0.008258
  H      1.257763   -2.119956   -0.014550
  H     -1.273669    2.150931   -0.006648
  C     -1.486165   -2.546334   -0.017599
  H     -2.166793   -2.531677   -0.888308
  H     -2.167517   -2.535988    0.852613
  C     -0.671077   -3.841512   -0.020366
  H     -0.007470   -3.867713   -0.905274
  H     -0.008441   -3.872109    0.865127
  C     -1.557915   -5.092292   -0.023885
  H     -2.224775   -5.067424    0.857968
  H     -2.223411   -5.063394   -0.906640
  C     -0.757529   -6.396373   -0.026244
  H     -0.108656   -6.471160    0.863891
  H     -0.107131   -6.466991   -0.915612
  C      1.479893    2.575731   -0.003505
  H      2.155518    2.565762    0.872279
  H      2.156092    2.570080   -0.878895
  C      0.665928    3.872021   -0.000661
  H      0.003382    3.900552   -0.885480
  H      0.002252    3.896000    0.883449
  C      1.551293    5.123627    0.003021
  H      2.216435    5.096723    0.886755
  H      2.218017    5.100803   -0.879638
  C      0.748444    6.426327    0.005308
  H      0.097582    6.494527    0.894121
  H      0.099548    6.498868   -0.884591
  C      4.031675   -0.053763   -0.009994
  H     -1.421069   -7.275944   -0.028889
  H      1.410119    7.307322    0.008206
  C      5.454574   -0.104157   -0.009614
  C      6.128342   -1.346466   -0.015274
  C      7.521137   -1.388941   -0.014795
  C      8.263853   -0.202169   -0.008716
  C      7.606163    1.033861   -0.003117
  C      6.213833    1.087895   -0.003585
  H      9.355918   -0.240878   -0.008329
  H      8.183514    1.961157    0.001688
  H      5.544563   -2.268661   -0.020082
  H      5.695622    2.048620    0.000827
  H      8.032889   -2.354074   -0.019252

 Total Charge           Charge          ....    0
 Multiplicity           Mult            ....    2
 Number of Electrons    NEL             ....  169
 Basis Dimension        Dim             ....  461

ORBITAL ENERGIES
----------------
                 SPIN UP ORBITALS
  NO   OCC          E(Eh)            E(eV)
   0   1.0000     -10.243801      -278.7480
   1   1.0000     -10.235613      -278.5252
   2   1.0000     -10.229429      -278.3569
   3   1.0000     -10.222999      -278.1820
   4   1.0000     -10.219806      -278.0951
   5   1.0000     -10.219291      -278.0810
   6   1.0000     -10.217092      -278.0212
   7   1.0000     -10.216891      -278.0157
   8   1.0000     -10.215235      -277.9707
   9   1.0000     -10.212553      -277.8977
  10   1.0000     -10.212462      -277.8952
  11   1.0000     -10.212447      -277.8948
  12   1.0000     -10.210668      -277.8464
  13   1.0000     -10.209877      -277.8249
  14   1.0000     -10.201541      -277.5980
  15   1.0000     -10.193113      -277.3687
  16   1.0000     -10.191439      -277.3232
  17   1.0000     -10.189921      -277.2818
  18   1.0000     -10.188180      -277.2345
  19   1.0000     -10.184638      -277.1381
  20   1.0000     -10.180997      -277.0390
  21   1.0000     -10.178554      -276.9725
  22   1.0000     -10.170706      -276.7590
  23   1.0000     -10.168682      -276.7039
  24   1.0000      -0.892962       -24.2987
  25   1.0000      -0.882880       -24.0244
  26   1.0000      -0.833181       -22.6720
  27   1.0000      -0.814740       -22.1702
  28   1.0000      -0.802568       -21.8390
  29   1.0000      -0.796104       -21.6631
  30   1.0000      -0.777495       -21.1567
  31   1.0000      -0.769811       -20.9476
  32   1.0000      -0.753158       -20.4945
  33   1.0000      -0.739094       -20.1118
  34   1.0000      -0.717948       -19.5364
  35   1.0000      -0.706882       -19.2352
  36   1.0000      -0.663148       -18.0452
  37   1.0000      -0.657150       -17.8820
  38   1.0000      -0.632562       -17.2129
  39   1.0000      -0.630041       -17.1443
  40   1.0000      -0.627433       -17.0733
  41   1.0000      -0.601862       -16.3775
  42   1.0000      -0.586220       -15.9519
  43   1.0000      -0.573042       -15.5933
  44   1.0000      -0.557528       -15.1711
  45   1.0000      -0.524926       -14.2840
  46   1.0000      -0.522193       -14.2096
  47   1.0000      -0.498038       -13.5523
  48   1.0000      -0.492834       -13.4107
  49   1.0000      -0.480954       -13.0874
  50   1.0000      -0.476608       -12.9692
  51   1.0000      -0.475736       -12.9454
  52   1.0000      -0.453724       -12.3465
  53   1.0000      -0.445430       -12.1208
  54   1.0000      -0.442519       -12.0416
  55   1.0000      -0.435420       -11.8484
  56   1.0000      -0.434988       -11.8366
  57   1.0000      -0.430232       -11.7072
  58   1.0000      -0.424124       -11.5410
  59   1.0000      -0.418605       -11.3908
  60   1.0000      -0.409891       -11.1537
  61   1.0000      -0.403717       -10.9857
  62   1.0000      -0.391186       -10.6447
  63   1.0000      -0.382378       -10.4050
  64   1.0000      -0.378855       -10.3092
  65   1.0000      -0.374510       -10.1909
  66   1.0000      -0.369276       -10.0485
  67   1.0000      -0.367184        -9.9916
  68   1.0000      -0.366985        -9.9862
  69   1.0000      -0.354003        -9.6329
  70   1.0000      -0.344108        -9.3637
  71   1.0000      -0.341535        -9.2936
  72   1.0000      -0.336478        -9.1560
  73   1.0000      -0.332901        -9.0587
  74   1.0000      -0.331048        -9.0083
  75   1.0000      -0.330421        -8.9912
  76   1.0000      -0.326706        -8.8901
  77   1.0000      -0.310947        -8.4613
  78   1.0000      -0.291484        -7.9317
  79   1.0000      -0.277548        -7.5525
  80   1.0000      -0.265881        -7.2350
  81   1.0000      -0.262449        -7.1416
  82   1.0000      -0.243518        -6.6265
  83   1.0000      -0.242608        -6.6017
  84   1.0000      -0.218448        -5.9443
  85   0.0000      -0.080328        -2.1858
  86   0.0000      -0.028811        -0.7840
  87   0.0000      -0.028537        -0.7765
  88   0.0000      -0.019158        -0.5213
  89   0.0000       0.023128         0.6293

                 SPIN DOWN ORBITALS
  NO   OCC          E(Eh)            E(eV)
   0   1.0000     -10.240694      -278.6635
   1   1.0000     -10.236092      -278.5382
   2   1.0000     -10.229871      -278.3689
   3   1.0000     -10.220908      -278.1250
   4   1.0000     -10.220817      -278.1226
   5   1.0000     -10.217251      -278.0255
   6   1.0000     -10.216487      -278.0047
   7   1.0000     -10.216286      -277.9993
   8   1.0000     -10.214589      -277.9531
   9   1.0000     -10.213392      -277.9205
  10   1.0000     -10.212850      -277.9058
  11   1.0000     -10.212736      -277.9027
  12   1.0000     -10.211037      -277.8565
  13   1.0000     -10.208976      -277.8004
  14   1.0000     -10.201490      -277.5966
  15   1.0000     -10.193254      -277.3725
  16   1.0000     -10.191443      -277.3233
  17   1.0000     -10.189922      -277.2819
  18   1.0000     -10.188183      -277.2345
  19   1.0000     -10.184639      -277.1381
  20   1.0000     -10.180997      -277.0390
  21   1.0000     -10.178555      -276.9725
  22   1.0000     -10.166765      -276.6517
  23   1.0000     -10.164322      -276.5853
  24   1.0000      -0.890013       -24.2185
  25   1.0000      -0.882047       -24.0017
  26   1.0000      -0.830927       -22.6107
  27   1.0000      -0.813023       -22.1235
  28   1.0000      -0.802072       -21.8255
  29   1.0000      -0.793409       -21.5898
  30   1.0000      -0.776993       -21.1430
  31   1.0000      -0.769273       -20.9330
  32   1.0000      -0.749880       -20.4053
  33   1.0000      -0.738124       -20.0854
  34   1.0000      -0.711336       -19.3564
  35   1.0000      -0.698386       -19.0041
  36   1.0000      -0.662415       -18.0252
  37   1.0000      -0.652040       -17.7429
  38   1.0000      -0.629654       -17.1338
  39   1.0000      -0.629417       -17.1273
  40   1.0000      -0.627016       -17.0620
  41   1.0000      -0.600559       -16.3420
  42   1.0000      -0.586090       -15.9483
  43   1.0000      -0.572486       -15.5781
  44   1.0000      -0.556836       -15.1523
  45   1.0000      -0.523455       -14.2439
  46   1.0000      -0.519909       -14.1475
  47   1.0000      -0.497126       -13.5275
  48   1.0000      -0.491805       -13.3827
  49   1.0000      -0.480871       -13.0852
  50   1.0000      -0.476264       -12.9598
  51   1.0000      -0.475106       -12.9283
  52   1.0000      -0.453376       -12.3370
  53   1.0000      -0.444734       -12.1018
  54   1.0000      -0.442370       -12.0375
  55   1.0000      -0.434721       -11.8294
  56   1.0000      -0.432931       -11.7806
  57   1.0000      -0.430093       -11.7034
  58   1.0000      -0.422856       -11.5065
  59   1.0000      -0.418420       -11.3858
  60   1.0000      -0.409262       -11.1366
  61   1.0000      -0.400706       -10.9038
  62   1.0000      -0.386774       -10.5247
  63   1.0000      -0.381793       -10.3891
  64   1.0000      -0.378403       -10.2969
  65   1.0000      -0.374428       -10.1887
  66   1.0000      -0.368952       -10.0397
  67   1.0000      -0.366471        -9.9722
  68   1.0000      -0.364867        -9.9285
  69   1.0000      -0.351735        -9.5712
  70   1.0000      -0.341428        -9.2907
  71   1.0000      -0.336834        -9.1657
  72   1.0000      -0.336458        -9.1555
  73   1.0000      -0.332811        -9.0563
  74   1.0000      -0.330825        -9.0022
  75   1.0000      -0.330043        -8.9809
  76   1.0000      -0.326210        -8.8766
  77   1.0000      -0.297184        -8.0868
  78   1.0000      -0.290592        -7.9074
  79   1.0000      -0.276050        -7.5117
  80   1.0000      -0.261604        -7.1186
  81   1.0000      -0.244637        -6.6569
  82   1.0000      -0.236124        -6.4253
  83   1.0000      -0.234250        -6.3743
  84   0.0000      -0.153111        -4.1664
  85   0.0000      -0.069326        -1.8865
  86   0.0000      -0.027053        -0.7361
  87   0.0000      -0.018117        -0.4930
  88   0.0000      -0.012601        -0.3429

MULLIKEN ATOMIC CHARGES AND SPIN POPULATIONS
--------------------------------------------
   0 C :   -0.273764    0.309949
   1 C :   -0.099146    0.288929
   2 C :    0.288643   -0.076617
   3 C :    0.074120   -0.028794
   4 C :   -0.059902    0.143950
   5 C :    0.021167   -0.085958
   6 C :   -0.169469    0.209265
   7 C :   -0.067544   -0.074296
   8 C :    0.054910    0.119438
   9 H :   -0.044413    0.002744
  10 H :   -0.032077   -0.005552
  11 C :    0.055103   -0.013076
  12 H :    0.045942    0.007127
  13 H :    0.045856    0.007141
  14 C :   -0.042511    0.000370
  15 H :    0.014707   -0.000078
  16 H :    0.014641   -0.000078
  17 C :   -0.023924    0.000036
  18 H :    0.011448   -0.000010
  19 H :    0.011414   -0.000010
  20 C :    0.002386   -0.000049
  21 H :    0.015784    0.000013
  22 H :    0.015782    0.000013
  23 C :    0.035888    0.004782
  24 H :    0.035268   -0.001996
  25 H :    0.035296   -0.001995
  26 C :   -0.038389   -0.000365
  27 H :    0.021894    0.000029
  28 H :    0.021914    0.000029
  29 C :   -0.026586   -0.000044
  30 H :    0.005584    0.000008
  31 H :    0.005671    0.000009
  32 C :    0.003243    0.000016
  33 H :    0.020427   -0.000005
  34 H :    0.020438   -0.000005
  35 C :    0.165766    0.144566
  36 H :    0.015545   -0.000004
  37 H :    0.013687   -0.000003
  38 C :   -0.268057   -0.029853
  39 C :    0.039217    0.040463
  40 C :    0.042750   -0.021686
  41 C :    0.032092    0.046807
  42 C :    0.046028   -0.021676
  43 C :    0.033002    0.040463
  44 H :   -0.013951   -0.002109
  45 H :   -0.020452    0.000848
  46 H :   -0.032604   -0.001793
  47 H :   -0.031981   -0.001792
  48 H :   -0.020846    0.000848
Sum of atomic charges         :   -0.0000000

LOEWDIN ATOMIC CHARGES AND SPIN POPULATIONS
-------------------------------------------
   0 C :   -0.159516    0.323108
   1 C :   -0.110380    0.257998
   2 C :   -0.011967   -0.032812
   3 C :   -0.036795    0.001517
   4 C :    0.020946    0.111379
   5 C :   -0.004708   -0.048160
   6 C :   -0.017118    0.153271
   7 C :   -0.006452   -0.039329
   8 C :    0.021248    0.094970
   9 H :    0.032332   -0.000426
  10 H :    0.037769   -0.000214
  11 C :   -0.031841   -0.000030
  12 H :    0.047831    0.005193
  13 H :    0.047799    0.005203
  14 C :   -0.045071   -0.000160
  15 H :    0.023362   -0.000083
  16 H :    0.023342   -0.000083
  17 C :   -0.045720   -0.000017
  18 H :    0.026548    0.000027
  19 H :    0.026547    0.000027
  20 C :   -0.067401   -0.000028
  21 H :    0.024665    0.000009
  22 H :    0.024668    0.000009
  23 C :   -0.035079   -0.000240
  24 H :    0.039751   -0.001562
  25 H :    0.039779   -0.001561
  26 C :   -0.042849   -0.000068
  27 H :    0.026985    0.000057
  28 H :    0.026984    0.000057
  29 C :   -0.047273   -0.000035
  30 H :    0.023679   -0.000012
  31 H :    0.023699   -0.000012
  32 C :   -0.066305    0.000004
  33 H :    0.026792   -0.000003
  34 H :    0.026793   -0.000003
  35 C :    0.006013    0.111345
  36 H :    0.028951   -0.000005
  37 H :    0.028279   -0.000002
  38 C :   -0.056141   -0.013508
  39 C :    0.007647    0.031750
  40 C :   -0.019057   -0.012838
  41 C :   -0.009810    0.036406
  42 C :   -0.019119   -0.012831
  43 C :    0.006366    0.031735
  44 H :    0.032709    0.000088
  45 H :    0.032615   -0.000048
  46 H :    0.033091   -0.000016
  47 H :    0.032865   -0.000016
  48 H :    0.032553   -0.000048

  Mayer bond orders larger than 0.100000
B(  0-C ,  1-C ) :   2.8941 B(  1-C ,  3-C ) :   1.0593 B(  2-C ,  6-C ) :   0.9285
B(  2-C , 35-C ) :   1.6917 B(  2-C , 38-C ) :  -0.1844 B(  3-C ,  4-C ) :   1.2795
B(  3-C ,  8-C ) :   1.2714 B(  4-C ,  5-C ) :   1.4868 B(  4-C , 11-C ) :   1.1021
B(  5-C ,  6-C ) :   1.3240 B(  5-C ,  9-H ) :   0.9256 B(  6-C ,  7-C ) :   1.3326
B(  7-C ,  8-C ) :   1.4964 B(  7-C , 23-C ) :   1.0951 B(  8-C , 10-H ) :   0.9259
B( 11-C , 12-H ) :   0.8931 B( 11-C , 13-H ) :   0.8930 B( 11-C , 14-C ) :   1.0995
B( 14-C , 15-H ) :   0.9289 B( 14-C , 16-H ) :   0.9289 B( 14-C , 17-C ) :   1.0745
B( 17-C , 18-H ) :   0.9419 B( 17-C , 19-H ) :   0.9419 B( 17-C , 20-C ) :   1.1037
B( 20-C , 21-H ) :   0.9663 B( 20-C , 22-H ) :   0.9663 B( 20-C , 36-H ) :   0.9628
B( 23-C , 24-H ) :   0.8970 B( 23-C , 25-H ) :   0.8970 B( 23-C , 26-C ) :   1.1028
B( 26-C , 27-H ) :   0.9302 B( 26-C , 28-H ) :   0.9302 B( 26-C , 29-C ) :   1.0732
B( 29-C , 30-H ) :   0.9416 B( 29-C , 31-H ) :   0.9416 B( 29-C , 32-C ) :   1.1046
B( 32-C , 33-H ) :   0.9665 B( 32-C , 34-H ) :   0.9665 B( 32-C , 37-H ) :   0.9622
B( 35-C , 38-C ) :   0.9567 B( 38-C , 39-C ) :   1.4263 B( 38-C , 43-C ) :   1.4258
B( 39-C , 40-C ) :   1.4771 B( 39-C , 46-H ) :   0.9420 B( 40-C , 41-C ) :   1.4416
B( 40-C , 48-H ) :   0.9386 B( 41-C , 42-C ) :   1.4392 B( 41-C , 44-H ) :   0.9449
B( 42-C , 43-C ) :   1.4771 B( 42-C , 45-H ) :   0.9386 B( 43-C , 47-H ) :   0.9422

FINAL SINGLE POINT ENERGY      -928.844015262323

DIPOLE MOMENT
-------------
                                X             Y             Z
Electronic contribution:      8.93195      -0.20066       0.00107
Nuclear contribution   :     -5.19141       0.09798       0.00617
                        -----------------------------------------
Total Dipole Moment    :      3.74054      -0.10268       0.00724
                        -----------------------------------------
Magnitude (a.u.)       :      3.74196
Magnitude (Debye)      :      9.51130

Rotational constants in cm-1:     0.006518     0.004317     0.002607
Rotational constants in MHz :   195.393866   129.427425    78.158665

                             ****ORCA TERMINATED NORMALLY****
TOTAL RUN TIME: 0 days 0 hours 50 minutes 53 seconds 458 msec
