                         Program Version 5.0.4 -  RELEASE  -
|  1> ! B3LYP cc-pVDZ AUTOAUX
|  2> %pal nprocs 16 end
|  3> *XYZFile 0 2 opt.xyz
|  4> %EPRNMR
|  5>         GTENSOR   TRUE
|  6>         NUCLEI    = ALL H {SHIFT, AISO, ADIP, AORB}
|  7>         ORI       GIAO
|  8> END
|  9>
| 10>                          ****END OF INPUT****

CARTESIAN COORDINATES (ANGSTROEM)
---------------------------------
  C     -4.099903    0.083492   -0.018353
  C     -2.815946    0.043661   -0.012330
  C      2.806008   -0.004269   -0.008539
  C     -1.423131    0.006681   -0.011521
  C     -0.708303   -1.246812   -0.013959
  C      0.675892   -1.194656   -0.012684
  C      1.390969    0.032616   -0.009322
  C      0.692187    1.284040   -0.006826
  C     -0.689714    1.234894   -0.008082
  H      1.259776   -2.114722   -0.014385
  H     -1.277365    2.152363   -0.006417
  C     -1.482678   -2.545270   -0.017742
  H     -2.162956   -2.531884   -0.888087
  H     -2.164001   -2.536305    0.851848
  C     -0.664773   -3.838900   -0.020463
  H     -0.001060   -3.863836   -0.904705
  H     -0.002550   -3.868472    0.864757
  C     -1.549765   -5.091581   -0.024486
  H     -2.216738   -5.067647    0.856694
  H     -2.214979   -5.063238   -0.906864
  C     -0.747242   -6.394947   -0.026958
  H     -0.098785   -6.468624    0.863263
  H     -0.096713   -6.463963   -0.916039
  C      1.475610    2.580851   -0.003105
  H      2.150780    2.571663    0.872485
  H      2.151902    2.575969   -0.877872
  C      0.660276    3.876516   -0.000466
  H     -0.001813    3.904739   -0.885019
  H     -0.003430    3.900164    0.883007
  C      1.545553    5.128838    0.003581
  H      2.210398    5.101571    0.886923
  H      2.212314    5.105900   -0.878438
  C      0.742544    6.432044    0.005924
  H      0.091762    6.499753    0.894507
  H      0.094086    6.504395   -0.883993
  C      4.030665   -0.051608   -0.009917
  H     -1.409442   -7.275742   -0.030044
  H      1.404248    7.313240    0.009096
  C      5.453353   -0.107226   -0.009647
  C      6.121835   -1.352501   -0.012193
  C      7.514506   -1.401458   -0.011853
  C      8.262259   -0.217737   -0.009063
  C      7.609924    1.021237   -0.006590
  C      6.217754    1.081653   -0.006879
  H      9.353772   -0.260949   -0.008833
  H      8.191473    1.945911   -0.004438
  H      5.533939   -2.272105   -0.014369
  H      5.703998    2.044629   -0.004992
  H      8.021809   -2.368853   -0.013791

 Total Charge           Charge          ....    0
 Multiplicity           Mult            ....    2
 Number of Electrons    NEL             ....  169
 Basis Dimension        Dim             ....  461

ORBITAL ENERGIES
----------------
                 SPIN UP ORBITALS
  NO   OCC          E(Eh)            E(eV)
   0   1.0000     -10.243956      -278.7522
   1   1.0000     -10.235788      -278.5300
   2   1.0000     -10.229517      -278.3593
   3   1.0000     -10.222977      -278.1813
   4   1.0000     -10.219884      -278.0972
   5   1.0000     -10.219433      -278.0849
   6   1.0000     -10.217104      -278.0215
   7   1.0000     -10.216957      -278.0175
   8   1.0000     -10.215131      -277.9678
   9   1.0000     -10.212606      -277.8991
  10   1.0000     -10.212536      -277.8972
  11   1.0000     -10.212494      -277.8961
  12   1.0000     -10.210885      -277.8523
  13   1.0000     -10.209972      -277.8275
  14   1.0000     -10.201257      -277.5903
  15   1.0000     -10.192743      -277.3586
  16   1.0000     -10.191173      -277.3159
  17   1.0000     -10.189631      -277.2740
  18   1.0000     -10.187884      -277.2264
  19   1.0000     -10.184338      -277.1299
  20   1.0000     -10.180758      -277.0325
  21   1.0000     -10.178320      -276.9662
  22   1.0000     -10.170899      -276.7642
  23   1.0000     -10.168817      -276.7076
  24   1.0000      -0.892956       -24.2986
  25   1.0000      -0.882807       -24.0224
  26   1.0000      -0.833110       -22.6701
  27   1.0000      -0.814701       -22.1691
  28   1.0000      -0.802336       -21.8327
  29   1.0000      -0.796079       -21.6624
  30   1.0000      -0.777316       -21.1518
  31   1.0000      -0.769771       -20.9465
  32   1.0000      -0.753151       -20.4943
  33   1.0000      -0.738895       -20.1063
  34   1.0000      -0.717973       -19.5370
  35   1.0000      -0.706751       -19.2317
  36   1.0000      -0.663040       -18.0422
  37   1.0000      -0.657168       -17.8825
  38   1.0000      -0.632566       -17.2130
  39   1.0000      -0.629920       -17.1410
  40   1.0000      -0.627388       -17.0721
  41   1.0000      -0.601794       -16.3756
  42   1.0000      -0.586002       -15.9459
  43   1.0000      -0.572885       -15.5890
  44   1.0000      -0.557507       -15.1705
  45   1.0000      -0.524900       -14.2832
  46   1.0000      -0.522232       -14.2107
  47   1.0000      -0.498040       -13.5524
  48   1.0000      -0.492798       -13.4097
  49   1.0000      -0.480679       -13.0799
  50   1.0000      -0.476551       -12.9676
  51   1.0000      -0.475447       -12.9376
  52   1.0000      -0.453695       -12.3457
  53   1.0000      -0.445476       -12.1220
  54   1.0000      -0.442479       -12.0405
  55   1.0000      -0.435297       -11.8450
  56   1.0000      -0.434859       -11.8331
  57   1.0000      -0.429954       -11.6996
  58   1.0000      -0.423929       -11.5357
  59   1.0000      -0.418343       -11.3837
  60   1.0000      -0.409790       -11.1509
  61   1.0000      -0.403748       -10.9866
  62   1.0000      -0.391175       -10.6444
  63   1.0000      -0.382280       -10.4024
  64   1.0000      -0.378808       -10.3079
  65   1.0000      -0.374318       -10.1857
  66   1.0000      -0.369220       -10.0470
  67   1.0000      -0.367088        -9.9890
  68   1.0000      -0.366844        -9.9823
  69   1.0000      -0.353923        -9.6307
  70   1.0000      -0.344089        -9.3631
  71   1.0000      -0.341277        -9.2866
  72   1.0000      -0.336166        -9.1475
  73   1.0000      -0.332607        -9.0507
  74   1.0000      -0.330815        -9.0019
  75   1.0000      -0.330216        -8.9856
  76   1.0000      -0.326476        -8.8839
  77   1.0000      -0.310980        -8.4622
  78   1.0000      -0.291554        -7.9336
  79   1.0000      -0.277528        -7.5519
  80   1.0000      -0.265887        -7.2352
  81   1.0000      -0.262474        -7.1423
  82   1.0000      -0.243630        -6.6295
  83   1.0000      -0.242726        -6.6049
  84   1.0000      -0.218479        -5.9451
  85   0.0000      -0.080218        -2.1828
  86   0.0000      -0.028677        -0.7803
  87   0.0000      -0.028604        -0.7783
  88   0.0000      -0.019186        -0.5221
  89   0.0000       0.023075         0.6279

                 SPIN DOWN ORBITALS
  NO   OCC          E(Eh)            E(eV)
   0   1.0000     -10.240878      -278.6685
   1   1.0000     -10.236254      -278.5426
   2   1.0000     -10.229953      -278.3712
   3   1.0000     -10.220905      -278.1250
   4   1.0000     -10.220889      -278.1245
   5   1.0000     -10.217416      -278.0300
   6   1.0000     -10.216510      -278.0054
   7   1.0000     -10.216364      -278.0014
   8   1.0000     -10.214499      -277.9507
   9   1.0000     -10.213450      -277.9221
  10   1.0000     -10.212894      -277.9070
  11   1.0000     -10.212773      -277.9037
  12   1.0000     -10.211123      -277.8588
  13   1.0000     -10.209184      -277.8060
  14   1.0000     -10.201204      -277.5889
  15   1.0000     -10.192882      -277.3624
  16   1.0000     -10.191176      -277.3160
  17   1.0000     -10.189632      -277.2740
  18   1.0000     -10.187887      -277.2265
  19   1.0000     -10.184339      -277.1300
  20   1.0000     -10.180758      -277.0325
  21   1.0000     -10.178321      -276.9662
  22   1.0000     -10.166962      -276.6571
  23   1.0000     -10.164436      -276.5884
  24   1.0000      -0.890011       -24.2184
  25   1.0000      -0.881979       -23.9999
  26   1.0000      -0.830846       -22.6085
  27   1.0000      -0.812991       -22.1226
  28   1.0000      -0.801839       -21.8192
  29   1.0000      -0.793388       -21.5892
  30   1.0000      -0.776817       -21.1383
  31   1.0000      -0.769238       -20.9320
  32   1.0000      -0.749849       -20.4044
  33   1.0000      -0.737938       -20.0803
  34   1.0000      -0.711204       -19.3528
  35   1.0000      -0.698400       -19.0044
  36   1.0000      -0.662306       -18.0222
  37   1.0000      -0.652049       -17.7432
  38   1.0000      -0.629614       -17.1327
  39   1.0000      -0.629342       -17.1253
  40   1.0000      -0.626974       -17.0608
  41   1.0000      -0.600490       -16.3402
  42   1.0000      -0.585872       -15.9424
  43   1.0000      -0.572335       -15.5740
  44   1.0000      -0.556814       -15.1517
  45   1.0000      -0.523413       -14.2428
  46   1.0000      -0.519960       -14.1488
  47   1.0000      -0.497136       -13.5277
  48   1.0000      -0.491769       -13.3817
  49   1.0000      -0.480594       -13.0776
  50   1.0000      -0.476210       -12.9583
  51   1.0000      -0.474814       -12.9203
  52   1.0000      -0.453349       -12.3362
  53   1.0000      -0.444772       -12.1028
  54   1.0000      -0.442331       -12.0364
  55   1.0000      -0.434605       -11.8262
  56   1.0000      -0.432787       -11.7767
  57   1.0000      -0.429812       -11.6958
  58   1.0000      -0.422664       -11.5013
  59   1.0000      -0.418160       -11.3787
  60   1.0000      -0.409159       -11.1338
  61   1.0000      -0.400767       -10.9054
  62   1.0000      -0.386775       -10.5247
  63   1.0000      -0.381692       -10.3864
  64   1.0000      -0.378359       -10.2957
  65   1.0000      -0.374238       -10.1835
  66   1.0000      -0.368903       -10.0384
  67   1.0000      -0.366322        -9.9681
  68   1.0000      -0.364751        -9.9254
  69   1.0000      -0.351663        -9.5692
  70   1.0000      -0.341171        -9.2837
  71   1.0000      -0.336802        -9.1648
  72   1.0000      -0.336147        -9.1470
  73   1.0000      -0.332519        -9.0483
  74   1.0000      -0.330604        -8.9962
  75   1.0000      -0.329841        -8.9754
  76   1.0000      -0.325995        -8.8708
  77   1.0000      -0.297238        -8.0883
  78   1.0000      -0.290666        -7.9094
  79   1.0000      -0.276045        -7.5116
  80   1.0000      -0.261543        -7.1170
  81   1.0000      -0.244661        -6.6576
  82   1.0000      -0.236276        -6.4294
  83   1.0000      -0.234288        -6.3753
  84   0.0000      -0.153134        -4.1670
  85   0.0000      -0.069209        -1.8833
  86   0.0000      -0.027135        -0.7384
  87   0.0000      -0.017990        -0.4895
  88   0.0000      -0.012618        -0.3433

MULLIKEN ATOMIC CHARGES AND SPIN POPULATIONS
--------------------------------------------
   0 C :   -0.275168    0.310420
   1 C :   -0.101166    0.289109
   2 C :    0.291368   -0.075842
   3 C :    0.080268   -0.028455
   4 C :   -0.056875    0.143634
   5 C :    0.015958   -0.085477
   6 C :   -0.167421    0.208202
   7 C :   -0.063903   -0.074224
   8 C :    0.047811    0.119635
   9 H :   -0.046450    0.002731
  10 H :   -0.032816   -0.005578
  11 C :    0.058626   -0.013021
  12 H :    0.044222    0.007119
  13 H :    0.044138    0.007135
  14 C :   -0.040398    0.000353
  15 H :    0.014561   -0.000070
  16 H :    0.014537   -0.000070
  17 C :   -0.024388    0.000032
  18 H :    0.011311   -0.000010
  19 H :    0.011338   -0.000010
  20 C :    0.002217   -0.000049
  21 H :    0.016096    0.000013
  22 H :    0.016092    0.000013
  23 C :    0.038143    0.004835
  24 H :    0.033724   -0.002010
  25 H :    0.033744   -0.002007
  26 C :   -0.036197   -0.000366
  27 H :    0.021860    0.000025
  28 H :    0.021843    0.000025
  29 C :   -0.027431   -0.000042
  30 H :    0.005608    0.000009
  31 H :    0.005608    0.000010
  32 C :    0.003224    0.000016
  33 H :    0.020701   -0.000005
  34 H :    0.020719   -0.000005
  35 C :    0.161735    0.143672
  36 H :    0.015884   -0.000004
  37 H :    0.014068   -0.000003
  38 C :   -0.265057   -0.029260
  39 C :    0.036798    0.039960
  40 C :    0.041941   -0.021289
  41 C :    0.039033    0.046138
  42 C :    0.041799   -0.021281
  43 C :    0.033882    0.039928
  44 H :   -0.018224   -0.002065
  45 H :   -0.019501    0.000826
  46 H :   -0.032477   -0.001760
  47 H :   -0.031979   -0.001761
  48 H :   -0.019403    0.000826
Sum of atomic charges         :   -0.0000000

LOEWDIN ATOMIC CHARGES AND SPIN POPULATIONS
-------------------------------------------
   0 C :   -0.159577    0.323546
   1 C :   -0.110251    0.258254
   2 C :   -0.011834   -0.032287
   3 C :   -0.036831    0.001731
   4 C :    0.021069    0.111206
   5 C :   -0.004943   -0.047922
   6 C :   -0.017147    0.152659
   7 C :   -0.006417   -0.039323
   8 C :    0.020867    0.095134
   9 H :    0.032121   -0.000425
  10 H :    0.037744   -0.000233
  11 C :   -0.031112    0.000000
  12 H :    0.047520    0.005190
  13 H :    0.047489    0.005201
  14 C :   -0.044696   -0.000167
  15 H :    0.023302   -0.000080
  16 H :    0.023295   -0.000080
  17 C :   -0.045664   -0.000019
  18 H :    0.026576    0.000026
  19 H :    0.026587    0.000026
  20 C :   -0.067593   -0.000028
  21 H :    0.024702    0.000009
  22 H :    0.024704    0.000009
  23 C :   -0.034482   -0.000219
  24 H :    0.039468   -0.001568
  25 H :    0.039477   -0.001566
  26 C :   -0.042467   -0.000066
  27 H :    0.026954    0.000056
  28 H :    0.026943    0.000056
  29 C :   -0.047249   -0.000033
  30 H :    0.023748   -0.000011
  31 H :    0.023748   -0.000011
  32 C :   -0.066487    0.000004
  33 H :    0.026816   -0.000003
  34 H :    0.026820   -0.000003
  35 C :    0.005839    0.110656
  36 H :    0.028932   -0.000005
  37 H :    0.028274   -0.000002
  38 C :   -0.056157   -0.013199
  39 C :    0.007402    0.031408
  40 C :   -0.019505   -0.012600
  41 C :   -0.008633    0.035941
  42 C :   -0.019698   -0.012595
  43 C :    0.006412    0.031366
  44 H :    0.032124    0.000091
  45 H :    0.032781   -0.000049
  46 H :    0.033169   -0.000014
  47 H :    0.032994   -0.000013
  48 H :    0.032870   -0.000049

  Mayer bond orders larger than 0.100000
B(  0-C ,  1-C ) :   2.8974 B(  1-C ,  3-C ) :   1.0563 B(  2-C ,  6-C ) :   0.9236
B(  2-C , 35-C ) :   1.6802 B(  2-C , 38-C ) :  -0.1840 B(  3-C ,  4-C ) :   1.2773
B(  3-C ,  8-C ) :   1.2760 B(  4-C ,  5-C ) :   1.4846 B(  4-C , 11-C ) :   1.1014
B(  5-C ,  6-C ) :   1.3300 B(  5-C ,  9-H ) :   0.9238 B(  6-C ,  7-C ) :   1.3305
B(  7-C ,  8-C ) :   1.4941 B(  7-C , 23-C ) :   1.0937 B(  8-C , 10-H ) :   0.9246
B( 11-C , 12-H ) :   0.8926 B( 11-C , 13-H ) :   0.8925 B( 11-C , 14-C ) :   1.1009
B( 14-C , 15-H ) :   0.9285 B( 14-C , 16-H ) :   0.9285 B( 14-C , 17-C ) :   1.0753
B( 17-C , 18-H ) :   0.9414 B( 17-C , 19-H ) :   0.9414 B( 17-C , 20-C ) :   1.1056
B( 20-C , 21-H ) :   0.9661 B( 20-C , 22-H ) :   0.9661 B( 20-C , 36-H ) :   0.9619
B( 23-C , 24-H ) :   0.8966 B( 23-C , 25-H ) :   0.8967 B( 23-C , 26-C ) :   1.1045
B( 26-C , 27-H ) :   0.9299 B( 26-C , 28-H ) :   0.9299 B( 26-C , 29-C ) :   1.0740
B( 29-C , 30-H ) :   0.9411 B( 29-C , 31-H ) :   0.9411 B( 29-C , 32-C ) :   1.1066
B( 32-C , 33-H ) :   0.9662 B( 32-C , 34-H ) :   0.9662 B( 32-C , 37-H ) :   0.9613
B( 35-C , 38-C ) :   0.9525 B( 38-C , 39-C ) :   1.4288 B( 38-C , 43-C ) :   1.4269
B( 39-C , 40-C ) :   1.4748 B( 39-C , 46-H ) :   0.9417 B( 40-C , 41-C ) :   1.4410
B( 40-C , 48-H ) :   0.9387 B( 41-C , 42-C ) :   1.4404 B( 41-C , 44-H ) :   0.9440
B( 42-C , 43-C ) :   1.4750 B( 42-C , 45-H ) :   0.9387 B( 43-C , 47-H ) :   0.9420

FINAL SINGLE POINT ENERGY      -928.844273364836

DIPOLE MOMENT
-------------
                                X             Y             Z
Electronic contribution:      8.91379      -0.21330       0.00184
Nuclear contribution   :     -5.17354       0.11309       0.00539
                        -----------------------------------------
Total Dipole Moment    :      3.74025      -0.10022       0.00723
                        -----------------------------------------
Magnitude (a.u.)       :      3.74160
Magnitude (Debye)      :      9.51039

Rotational constants in cm-1:     0.006500     0.004325     0.002607
Rotational constants in MHz :   194.876145   129.670307    78.163739

CHEMICAL SHIELDING SUMMARY (ppm)  --  Orbital contribution
----------------------------------------------------------

  Nucleus  Element    Isotropic     Anisotropy
  -------  -------  ------------   ------------
      9       H           24.048         13.510
     10       H           24.973          9.222
     12       H           28.769          7.243
     13       H           28.766          7.204
     15       H           29.805          4.803
     16       H           29.804          4.804
     18       H           29.841          7.097
     19       H           29.841          7.105
     21       H           30.312          7.602
     22       H           30.313          7.602
     24       H           28.545          6.119
     25       H           28.545          6.122
     27       H           29.728          5.389
     28       H           29.727          5.384
     30       H           29.811          6.110
     31       H           29.811          6.112
     33       H           30.252          8.198
     34       H           30.252          8.201
     36       H           30.057         10.194
     37       H           30.067         10.100
     44       H           24.049          4.636
     45       H           24.068          5.435
     46       H           23.854          7.444
     47       H           23.840          7.501
     48       H           24.058          5.165

                             ****ORCA TERMINATED NORMALLY****
TOTAL RUN TIME: 0 days 1 hours 22 minutes 48 seconds 201 msec
