                         Program Version 4.2.1 -  RELEASE  -
|  1> ! B3LYP EPR-II AUTOAUX
|  2> %pal nprocs 16 end
|  3> *XYZFile 0 2 opt.xyz
|  4> %EPRNMR
|  5>         GTENSOR   TRUE
|  6>         NUCLEI    = ALL H {AISO, ADIP, AORB}
|  7> END
|  8>
|  9>                          ****END OF INPUT****

CARTESIAN COORDINATES (ANGSTROEM)
---------------------------------
  C     -4.098967    0.087649   -0.018603
  C     -2.815047    0.044667   -0.012458
  C      2.806862   -0.008947   -0.008584
  C     -1.422247    0.005174   -0.011616
  C     -0.708894   -1.249265   -0.014028
  C      0.675479   -1.198923   -0.012845
  C      1.391746    0.027780   -0.009474
  C      0.694256    1.279949   -0.007020
  C     -0.687609    1.232598   -0.008258
  H      1.257763   -2.119956   -0.014550
  H     -1.273669    2.150931   -0.006648
  C     -1.486165   -2.546334   -0.017599
  H     -2.166793   -2.531677   -0.888308
  H     -2.167517   -2.535988    0.852613
  C     -0.671077   -3.841512   -0.020366
  H     -0.007470   -3.867713   -0.905274
  H     -0.008441   -3.872109    0.865127
  C     -1.557915   -5.092292   -0.023885
  H     -2.224775   -5.067424    0.857968
  H     -2.223411   -5.063394   -0.906640
  C     -0.757529   -6.396373   -0.026244
  H     -0.108656   -6.471160    0.863891
  H     -0.107131   -6.466991   -0.915612
  C      1.479893    2.575731   -0.003505
  H      2.155518    2.565762    0.872279
  H      2.156092    2.570080   -0.878895
  C      0.665928    3.872021   -0.000661
  H      0.003382    3.900552   -0.885480
  H      0.002252    3.896000    0.883449
  C      1.551293    5.123627    0.003021
  H      2.216435    5.096723    0.886755
  H      2.218017    5.100803   -0.879638
  C      0.748444    6.426327    0.005308
  H      0.097582    6.494527    0.894121
  H      0.099548    6.498868   -0.884591
  C      4.031675   -0.053763   -0.009994
  H     -1.421069   -7.275944   -0.028889
  H      1.410119    7.307322    0.008206
  C      5.454574   -0.104157   -0.009614
  C      6.128342   -1.346466   -0.015274
  C      7.521137   -1.388941   -0.014795
  C      8.263853   -0.202169   -0.008716
  C      7.606163    1.033861   -0.003117
  C      6.213833    1.087895   -0.003585
  H      9.355918   -0.240878   -0.008329
  H      8.183514    1.961157    0.001688
  H      5.544563   -2.268661   -0.020082
  H      5.695622    2.048620    0.000827
  H      8.032889   -2.354074   -0.019252

 Total Charge           Charge          ....    0
 Multiplicity           Mult            ....    2
 Number of Electrons    NEL             ....  169
 Basis Dimension        Dim             ....  583

ORBITAL ENERGIES
----------------
                 SPIN UP ORBITALS
  NO   OCC          E(Eh)            E(eV)
   0   1.0000     -10.254989      -279.0524
   1   1.0000     -10.247775      -278.8561
   2   1.0000     -10.242084      -278.7013
   3   1.0000     -10.233612      -278.4707
   4   1.0000     -10.233174      -278.4588
   5   1.0000     -10.230302      -278.3807
   6   1.0000     -10.226371      -278.2737
   7   1.0000     -10.226191      -278.2688
   8   1.0000     -10.226086      -278.2659
   9   1.0000     -10.225502      -278.2501
  10   1.0000     -10.222469      -278.1675
  11   1.0000     -10.222330      -278.1637
  12   1.0000     -10.218875      -278.0697
  13   1.0000     -10.217932      -278.0441
  14   1.0000     -10.203663      -277.6558
  15   1.0000     -10.195033      -277.4210
  16   1.0000     -10.192899      -277.3629
  17   1.0000     -10.191228      -277.3174
  18   1.0000     -10.189592      -277.2729
  19   1.0000     -10.186210      -277.1809
  20   1.0000     -10.185637      -277.1653
  21   1.0000     -10.184006      -277.1209
  22   1.0000     -10.179096      -276.9873
  23   1.0000     -10.176541      -276.9178
  24   1.0000      -0.893897       -24.3242
  25   1.0000      -0.884062       -24.0566
  26   1.0000      -0.833718       -22.6866
  27   1.0000      -0.815352       -22.1868
  28   1.0000      -0.801227       -21.8025
  29   1.0000      -0.797537       -21.7021
  30   1.0000      -0.776658       -21.1339
  31   1.0000      -0.771246       -20.9867
  32   1.0000      -0.754898       -20.5418
  33   1.0000      -0.738512       -20.0959
  34   1.0000      -0.719777       -19.5861
  35   1.0000      -0.706705       -19.2304
  36   1.0000      -0.662821       -18.0363
  37   1.0000      -0.658979       -17.9317
  38   1.0000      -0.634229       -17.2582
  39   1.0000      -0.629860       -17.1394
  40   1.0000      -0.629195       -17.1213
  41   1.0000      -0.602393       -16.3920
  42   1.0000      -0.585838       -15.9415
  43   1.0000      -0.573131       -15.5957
  44   1.0000      -0.559836       -15.2339
  45   1.0000      -0.526327       -14.3221
  46   1.0000      -0.523539       -14.2462
  47   1.0000      -0.500242       -13.6123
  48   1.0000      -0.493377       -13.4255
  49   1.0000      -0.481236       -13.0951
  50   1.0000      -0.477263       -12.9870
  51   1.0000      -0.475813       -12.9475
  52   1.0000      -0.456002       -12.4084
  53   1.0000      -0.446977       -12.1629
  54   1.0000      -0.444768       -12.1028
  55   1.0000      -0.435562       -11.8523
  56   1.0000      -0.434970       -11.8361
  57   1.0000      -0.429881       -11.6977
  58   1.0000      -0.424567       -11.5531
  59   1.0000      -0.418435       -11.3862
  60   1.0000      -0.410250       -11.1635
  61   1.0000      -0.404656       -11.0112
  62   1.0000      -0.392018       -10.6673
  63   1.0000      -0.382970       -10.4211
  64   1.0000      -0.381093       -10.3701
  65   1.0000      -0.374407       -10.1881
  66   1.0000      -0.371400       -10.1063
  67   1.0000      -0.367872       -10.0103
  68   1.0000      -0.367512       -10.0005
  69   1.0000      -0.354851        -9.6560
  70   1.0000      -0.345426        -9.3995
  71   1.0000      -0.340900        -9.2764
  72   1.0000      -0.336168        -9.1476
  73   1.0000      -0.332540        -9.0489
  74   1.0000      -0.331046        -9.0082
  75   1.0000      -0.329705        -8.9717
  76   1.0000      -0.326516        -8.8849
  77   1.0000      -0.312778        -8.5111
  78   1.0000      -0.293546        -7.9878
  79   1.0000      -0.279087        -7.5944
  80   1.0000      -0.267373        -7.2756
  81   1.0000      -0.264398        -7.1946
  82   1.0000      -0.250095        -6.8054
  83   1.0000      -0.246206        -6.6996
  84   1.0000      -0.221113        -6.0168
  85   0.0000      -0.083615        -2.2753
  86   0.0000      -0.033537        -0.9126
  87   0.0000      -0.033148        -0.9020
  88   0.0000      -0.022387        -0.6092
  89   0.0000       0.001758         0.0478

                 SPIN DOWN ORBITALS
  NO   OCC          E(Eh)            E(eV)
   0   1.0000     -10.251902      -278.9684
   1   1.0000     -10.248247      -278.8690
   2   1.0000     -10.242377      -278.7093
   3   1.0000     -10.231559      -278.4149
   4   1.0000     -10.231271      -278.4070
   5   1.0000     -10.231157      -278.4039
   6   1.0000     -10.227000      -278.2908
   7   1.0000     -10.225771      -278.2574
   8   1.0000     -10.225592      -278.2525
   9   1.0000     -10.224859      -278.2326
  10   1.0000     -10.222760      -278.1754
  11   1.0000     -10.222613      -278.1714
  12   1.0000     -10.219071      -278.0750
  13   1.0000     -10.217258      -278.0257
  14   1.0000     -10.203614      -277.6544
  15   1.0000     -10.195166      -277.4246
  16   1.0000     -10.192903      -277.3630
  17   1.0000     -10.191229      -277.3174
  18   1.0000     -10.189595      -277.2730
  19   1.0000     -10.185638      -277.1653
  20   1.0000     -10.182534      -277.0808
  21   1.0000     -10.179688      -277.0034
  22   1.0000     -10.179095      -276.9873
  23   1.0000     -10.176542      -276.9178
  24   1.0000      -0.890884       -24.2422
  25   1.0000      -0.883210       -24.0334
  26   1.0000      -0.831198       -22.6180
  27   1.0000      -0.813757       -22.1435
  28   1.0000      -0.800744       -21.7894
  29   1.0000      -0.794781       -21.6271
  30   1.0000      -0.776206       -21.1216
  31   1.0000      -0.770703       -20.9719
  32   1.0000      -0.751405       -20.4468
  33   1.0000      -0.737669       -20.0730
  34   1.0000      -0.711274       -19.3548
  35   1.0000      -0.700220       -19.0540
  36   1.0000      -0.662005       -18.0141
  37   1.0000      -0.653959       -17.7951
  38   1.0000      -0.631322       -17.1791
  39   1.0000      -0.629304       -17.1242
  40   1.0000      -0.628752       -17.1092
  41   1.0000      -0.601091       -16.3565
  42   1.0000      -0.585707       -15.9379
  43   1.0000      -0.572614       -15.5816
  44   1.0000      -0.559146       -15.2151
  45   1.0000      -0.524628       -14.2758
  46   1.0000      -0.521462       -14.1897
  47   1.0000      -0.499315       -13.5871
  48   1.0000      -0.492301       -13.3962
  49   1.0000      -0.481133       -13.0923
  50   1.0000      -0.476907       -12.9773
  51   1.0000      -0.475155       -12.9296
  52   1.0000      -0.455637       -12.3985
  53   1.0000      -0.446207       -12.1419
  54   1.0000      -0.444612       -12.0985
  55   1.0000      -0.434293       -11.8177
  56   1.0000      -0.433428       -11.7942
  57   1.0000      -0.429738       -11.6938
  58   1.0000      -0.423263       -11.5176
  59   1.0000      -0.418255       -11.3813
  60   1.0000      -0.409614       -11.1462
  61   1.0000      -0.401581       -10.9276
  62   1.0000      -0.387489       -10.5441
  63   1.0000      -0.382352       -10.4043
  64   1.0000      -0.380618       -10.3571
  65   1.0000      -0.374330       -10.1860
  66   1.0000      -0.371124       -10.0988
  67   1.0000      -0.366948        -9.9852
  68   1.0000      -0.365372        -9.9423
  69   1.0000      -0.352518        -9.5925
  70   1.0000      -0.340794        -9.2735
  71   1.0000      -0.338045        -9.1987
  72   1.0000      -0.336140        -9.1468
  73   1.0000      -0.332456        -9.0466
  74   1.0000      -0.330861        -9.0032
  75   1.0000      -0.329334        -8.9616
  76   1.0000      -0.326093        -8.8735
  77   1.0000      -0.298905        -8.1336
  78   1.0000      -0.292619        -7.9626
  79   1.0000      -0.277577        -7.5533
  80   1.0000      -0.262866        -7.1530
  81   1.0000      -0.246788        -6.7155
  82   1.0000      -0.240711        -6.5501
  83   1.0000      -0.239599        -6.5198
  84   0.0000      -0.156451        -4.2572
  85   0.0000      -0.072625        -1.9762
  86   0.0000      -0.032086        -0.8731
  87   0.0000      -0.022717        -0.6182
  88   0.0000      -0.015714        -0.4276

MULLIKEN ATOMIC CHARGES AND SPIN POPULATIONS
--------------------------------------------
   0 C :   -0.508267    0.311995
   1 C :   -0.133365    0.285318
   2 C :   -0.385137   -0.069110
   3 C :    0.412720   -0.018943
   4 C :    0.309511    0.140513
   5 C :   -0.411413   -0.081404
   6 C :    0.559775    0.200551
   7 C :    0.245273   -0.066055
   8 C :   -0.364086    0.107514
   9 H :    0.143570    0.003229
  10 H :    0.157315   -0.005920
  11 C :   -0.366051   -0.016201
  12 H :    0.164898    0.007064
  13 H :    0.164771    0.007066
  14 C :   -0.264014    0.000482
  15 H :    0.137014   -0.000044
  16 H :    0.136879   -0.000044
  17 C :   -0.251139    0.000033
  18 H :    0.144915   -0.000004
  19 H :    0.144961   -0.000003
  20 C :   -0.510321   -0.000033
  21 H :    0.156312    0.000016
  22 H :    0.156299    0.000016
  23 C :   -0.351508    0.003613
  24 H :    0.152007   -0.001803
  25 H :    0.151955   -0.001804
  26 C :   -0.262816   -0.000433
  27 H :    0.143264    0.000123
  28 H :    0.143345    0.000123
  29 C :   -0.253887   -0.000067
  30 H :    0.139697    0.000011
  31 H :    0.139688    0.000011
  32 C :   -0.507110    0.000011
  33 H :    0.159809   -0.000006
  34 H :    0.159839   -0.000006
  35 C :   -0.268148    0.140566
  36 H :    0.146473   -0.000004
  37 H :    0.143391   -0.000003
  38 C :    0.583398   -0.025128
  39 C :   -0.273363    0.039206
  40 C :   -0.099271   -0.020953
  41 C :   -0.125799    0.046980
  42 C :   -0.100410   -0.020923
  43 C :   -0.269549    0.039286
  44 H :    0.124127   -0.002637
  45 H :    0.115298    0.001016
  46 H :    0.126926   -0.002110
  47 H :    0.126947   -0.002117
  48 H :    0.115276    0.001014
Sum of atomic charges         :    0.0000000

LOEWDIN ATOMIC CHARGES AND SPIN POPULATIONS
-------------------------------------------
   0 C :   -0.156478    0.325577
   1 C :   -0.142855    0.248002
   2 C :   -0.023100   -0.031319
   3 C :   -0.050852    0.007965
   4 C :   -0.015065    0.110304
   5 C :   -0.006907   -0.047172
   6 C :   -0.032405    0.153111
   7 C :   -0.042774   -0.037202
   8 C :    0.019244    0.091486
   9 H :    0.065618   -0.000409
  10 H :    0.070391   -0.000043
  11 C :   -0.043959   -0.000539
  12 H :    0.069791    0.005130
  13 H :    0.069746    0.005127
  14 C :   -0.085761   -0.000161
  15 H :    0.046231   -0.000071
  16 H :    0.046208   -0.000070
  17 C :   -0.092871   -0.000036
  18 H :    0.045417    0.000018
  19 H :    0.045425    0.000018
  20 C :   -0.084849   -0.000026
  21 H :    0.036096    0.000010
  22 H :    0.036101    0.000010
  23 C :   -0.047642   -0.000078
  24 H :    0.062360   -0.001506
  25 H :    0.062378   -0.001506
  26 C :   -0.082138   -0.000116
  27 H :    0.049166    0.000105
  28 H :    0.049173    0.000105
  29 C :   -0.096359   -0.000039
  30 H :    0.043215   -0.000013
  31 H :    0.043221   -0.000013
  32 C :   -0.082467    0.000001
  33 H :    0.037767   -0.000004
  34 H :    0.037766   -0.000004
  35 C :   -0.004448    0.111306
  36 H :    0.035172   -0.000005
  37 H :    0.034500   -0.000002
  38 C :   -0.075951   -0.013074
  39 C :   -0.006809    0.031910
  40 C :   -0.039425   -0.012730
  41 C :   -0.032108    0.036719
  42 C :   -0.039627   -0.012723
  43 C :   -0.007522    0.031874
  44 H :    0.055411    0.000158
  45 H :    0.055424   -0.000070
  46 H :    0.060648    0.000031
  47 H :    0.060387    0.000030
  48 H :    0.055516   -0.000070

  Mayer bond orders larger than 0.100000
B(  0-C ,  1-C ) :   2.0296 B(  1-C ,  3-C ) :   1.0914 B(  1-C ,  8-C ) :   0.1191
B(  2-C ,  6-C ) :   0.8611 B(  2-C ,  7-C ) :   0.1017 B(  2-C , 35-C ) :   2.4303
B(  3-C ,  4-C ) :   1.2679 B(  3-C ,  5-C ) :   0.1036 B(  3-C ,  8-C ) :   1.3242
B(  4-C ,  5-C ) :   1.5098 B(  4-C ,  6-C ) :   0.1107 B(  4-C , 11-C ) :   0.9666
B(  5-C ,  6-C ) :   1.3758 B(  5-C ,  9-H ) :   0.9614 B(  6-C ,  7-C ) :   1.3211
B(  6-C ,  8-C ) :   0.1402 B(  6-C , 35-C ) :   0.1216 B(  7-C ,  8-C ) :   1.5261
B(  7-C , 23-C ) :   0.9715 B(  8-C , 10-H ) :   0.9569 B( 11-C , 12-H ) :   0.9504
B( 11-C , 13-H ) :   0.9503 B( 11-C , 14-C ) :   1.0129 B( 14-C , 15-H ) :   0.9595
B( 14-C , 16-H ) :   0.9595 B( 14-C , 17-C ) :   0.9932 B( 17-C , 18-H ) :   0.9703
B( 17-C , 19-H ) :   0.9703 B( 17-C , 20-C ) :   0.9510 B( 20-C , 21-H ) :   0.9739
B( 20-C , 22-H ) :   0.9739 B( 20-C , 36-H ) :   0.9679 B( 23-C , 24-H ) :   0.9545
B( 23-C , 25-H ) :   0.9548 B( 23-C , 26-C ) :   1.0210 B( 26-C , 27-H ) :   0.9581
B( 26-C , 28-H ) :   0.9582 B( 26-C , 29-C ) :   0.9900 B( 29-C , 30-H ) :   0.9719
B( 29-C , 31-H ) :   0.9719 B( 29-C , 32-C ) :   0.9547 B( 32-C , 33-H ) :   0.9728
B( 32-C , 34-H ) :   0.9729 B( 32-C , 37-H ) :   0.9676 B( 35-C , 38-C ) :   1.0275
B( 38-C , 39-C ) :   1.3802 B( 38-C , 43-C ) :   1.3762 B( 39-C , 40-C ) :   1.4895
B( 39-C , 46-H ) :   0.9775 B( 40-C , 41-C ) :   1.4531 B( 40-C , 48-H ) :   0.9696
B( 41-C , 42-C ) :   1.4521 B( 41-C , 43-C ) :   0.1004 B( 41-C , 44-H ) :   0.9606
B( 42-C , 43-C ) :   1.4908 B( 42-C , 45-H ) :   0.9714 B( 43-C , 47-H ) :   0.9742

FINAL SINGLE POINT ENERGY      -928.918332417196

DIPOLE MOMENT
-------------
                                X             Y             Z
Electronic contribution:      9.16534      -0.21188       0.00116
Nuclear contribution   :     -5.19141       0.09798       0.00617
                        -----------------------------------------
Total Dipole Moment    :      3.97393      -0.11390       0.00733
                        -----------------------------------------
Magnitude (a.u.)       :      3.97557
Magnitude (Debye)      :     10.10510

Rotational constants in cm-1:     0.006518     0.004317     0.002607
Rotational constants in MHz :   195.393866   129.427425    78.158665

                             ****ORCA TERMINATED NORMALLY****
TOTAL RUN TIME: 0 days 1 hours 26 minutes 38 seconds 951 msec
