                         Program Version 5.0.4 -  RELEASE  -
|  1> ! B3LYP EPR-II AUTOAUX
|  2> %pal nprocs 16 end
|  3> *XYZFile 0 2 opt_EPRII.xyz
|  4> %EPRNMR
|  5>         GTENSOR   TRUE
|  6>         NUCLEI    = ALL H {SHIFT, AISO, ADIP, AORB}
|  7>         ORI       CenterOfElCharge
|  8> END
|  9>
| 10>                          ****END OF INPUT****

CARTESIAN COORDINATES (ANGSTROEM)
---------------------------------
  C     -4.113085    0.073637   -0.018204
  C     -2.824890    0.051463   -0.012975
  C      2.807106   -0.006085   -0.009360
  C     -1.427304    0.011936   -0.012516
  C     -0.714994   -1.246467   -0.014833
  C      0.672777   -1.198020   -0.013556
  C      1.389321    0.032206   -0.010227
  C      0.692314    1.288046   -0.007400
  C     -0.692930    1.243500   -0.008663
  H      1.250439   -2.114950   -0.015211
  H     -1.274541    2.157673   -0.006761
  C     -1.494418   -2.547167   -0.018707
  H     -2.164603   -2.536718   -0.887834
  H     -2.167297   -2.540332    0.848356
  C     -0.667445   -3.841890   -0.020097
  H     -0.010652   -3.867183   -0.900371
  H     -0.013781   -3.870976    0.862393
  C     -1.554353   -5.100241   -0.024427
  H     -2.214347   -5.080188    0.852514
  H     -2.210859   -5.076577   -0.903892
  C     -0.740810   -6.405939   -0.025519
  H     -0.099373   -6.471396    0.860733
  H     -0.095182   -6.467269   -0.909017
  C      1.480981    2.586933   -0.003308
  H      2.147219    2.579608    0.870093
  H      2.148475    2.584347   -0.875776
  C      0.657049    3.883874   -0.000385
  H      0.002570    3.912375   -0.881476
  H      0.000517    3.907167    0.879327
  C      1.544186    5.141911    0.004404
  H      2.200662    5.118683    0.884580
  H      2.203073    5.123698   -0.874088
  C      0.730302    6.447485    0.007035
  H      0.084864    6.507040    0.890398
  H      0.087982    6.512581   -0.878209
  C      4.035162   -0.048660   -0.010298
  H     -1.396602   -7.282494   -0.029107
  H      1.385553    7.324507    0.010933
  C      5.461584   -0.108003   -0.009969
  C      6.125738   -1.360410   -0.012186
  C      7.523062   -1.414769   -0.011836
  C      8.278291   -0.229049   -0.009330
  C      7.627542    1.017125   -0.007149
  C      6.230628    1.082692   -0.007467
  H      9.363866   -0.275817   -0.009089
  H      8.209979    1.934333   -0.005222
  H      5.536832   -2.272616   -0.014134
  H      5.722748    2.042341   -0.005815
  H      8.024952   -2.378429   -0.013531

 Total Charge           Charge          ....    0
 Multiplicity           Mult            ....    2
 Number of Electrons    NEL             ....  169
 Basis Dimension        Dim             ....  583

ORBITAL ENERGIES
----------------
                 SPIN UP ORBITALS
  NO   OCC          E(Eh)            E(eV)
   0   1.0000     -10.255646      -279.0703
   1   1.0000     -10.248813      -278.8844
   2   1.0000     -10.242933      -278.7244
   3   1.0000     -10.234163      -278.4857
   4   1.0000     -10.233685      -278.4727
   5   1.0000     -10.230808      -278.3944
   6   1.0000     -10.226599      -278.2799
   7   1.0000     -10.226521      -278.2778
   8   1.0000     -10.226369      -278.2736
   9   1.0000     -10.225502      -278.2501
  10   1.0000     -10.222667      -278.1729
  11   1.0000     -10.222553      -278.1698
  12   1.0000     -10.218998      -278.0731
  13   1.0000     -10.217904      -278.0433
  14   1.0000     -10.202212      -277.6163
  15   1.0000     -10.193625      -277.3826
  16   1.0000     -10.191221      -277.3172
  17   1.0000     -10.189421      -277.2682
  18   1.0000     -10.187876      -277.2262
  19   1.0000     -10.187300      -277.2105
  20   1.0000     -10.185128      -277.1514
  21   1.0000     -10.183851      -277.1167
  22   1.0000     -10.176440      -276.9150
  23   1.0000     -10.173898      -276.8458
  24   1.0000      -0.891980       -24.2720
  25   1.0000      -0.881436       -23.9851
  26   1.0000      -0.832075       -22.6419
  27   1.0000      -0.814020       -22.1506
  28   1.0000      -0.799860       -21.7653
  29   1.0000      -0.795992       -21.6601
  30   1.0000      -0.775498       -21.1024
  31   1.0000      -0.770262       -20.9599
  32   1.0000      -0.753664       -20.5082
  33   1.0000      -0.737717       -20.0743
  34   1.0000      -0.719075       -19.5670
  35   1.0000      -0.706227       -19.2174
  36   1.0000      -0.662911       -18.0387
  37   1.0000      -0.658124       -17.9085
  38   1.0000      -0.633632       -17.2420
  39   1.0000      -0.630683       -17.1618
  40   1.0000      -0.629177       -17.1208
  41   1.0000      -0.602906       -16.4059
  42   1.0000      -0.587189       -15.9782
  43   1.0000      -0.574408       -15.6304
  44   1.0000      -0.559168       -15.2157
  45   1.0000      -0.525826       -14.3084
  46   1.0000      -0.522832       -14.2270
  47   1.0000      -0.501414       -13.6442
  48   1.0000      -0.492135       -13.3917
  49   1.0000      -0.481806       -13.1106
  50   1.0000      -0.476459       -12.9651
  51   1.0000      -0.475431       -12.9371
  52   1.0000      -0.456327       -12.4173
  53   1.0000      -0.447930       -12.1888
  54   1.0000      -0.445186       -12.1141
  55   1.0000      -0.435909       -11.8617
  56   1.0000      -0.433415       -11.7938
  57   1.0000      -0.428924       -11.6716
  58   1.0000      -0.425702       -11.5840
  59   1.0000      -0.418041       -11.3755
  60   1.0000      -0.409520       -11.1436
  61   1.0000      -0.403354       -10.9758
  62   1.0000      -0.391816       -10.6618
  63   1.0000      -0.382538       -10.4094
  64   1.0000      -0.381384       -10.3780
  65   1.0000      -0.374069       -10.1789
  66   1.0000      -0.371964       -10.1217
  67   1.0000      -0.369113       -10.0441
  68   1.0000      -0.367179        -9.9914
  69   1.0000      -0.356275        -9.6947
  70   1.0000      -0.345656        -9.4058
  71   1.0000      -0.339471        -9.2375
  72   1.0000      -0.335399        -9.1267
  73   1.0000      -0.332998        -9.0613
  74   1.0000      -0.331783        -9.0283
  75   1.0000      -0.328459        -8.9378
  76   1.0000      -0.328325        -8.9342
  77   1.0000      -0.311895        -8.4871
  78   1.0000      -0.292954        -7.9717
  79   1.0000      -0.278234        -7.5711
  80   1.0000      -0.267222        -7.2715
  81   1.0000      -0.263908        -7.1813
  82   1.0000      -0.250842        -6.8258
  83   1.0000      -0.245903        -6.6914
  84   1.0000      -0.220861        -6.0099
  85   0.0000      -0.083662        -2.2766
  86   0.0000      -0.034420        -0.9366
  87   0.0000      -0.033603        -0.9144
  88   0.0000      -0.023035        -0.6268
  89   0.0000       0.001472         0.0401

                 SPIN DOWN ORBITALS
  NO   OCC          E(Eh)            E(eV)
   0   1.0000     -10.252585      -278.9870
   1   1.0000     -10.249278      -278.8970
   2   1.0000     -10.243243      -278.7328
   3   1.0000     -10.232111      -278.4299
   4   1.0000     -10.231787      -278.4211
   5   1.0000     -10.231681      -278.4182
   6   1.0000     -10.227512      -278.3047
   7   1.0000     -10.225928      -278.2616
   8   1.0000     -10.225776      -278.2575
   9   1.0000     -10.224868      -278.2328
  10   1.0000     -10.222955      -278.1807
  11   1.0000     -10.222830      -278.1774
  12   1.0000     -10.219046      -278.0744
  13   1.0000     -10.217374      -278.0289
  14   1.0000     -10.202163      -277.6150
  15   1.0000     -10.193755      -277.3862
  16   1.0000     -10.191225      -277.3173
  17   1.0000     -10.189422      -277.2683
  18   1.0000     -10.187879      -277.2263
  19   1.0000     -10.183852      -277.1167
  20   1.0000     -10.183604      -277.1100
  21   1.0000     -10.180789      -277.0334
  22   1.0000     -10.176440      -276.9150
  23   1.0000     -10.173899      -276.8459
  24   1.0000      -0.888988       -24.1906
  25   1.0000      -0.880595       -23.9622
  26   1.0000      -0.829585       -22.5742
  27   1.0000      -0.812417       -22.1070
  28   1.0000      -0.799366       -21.7519
  29   1.0000      -0.793253       -21.5855
  30   1.0000      -0.775059       -21.0904
  31   1.0000      -0.769725       -20.9453
  32   1.0000      -0.750190       -20.4137
  33   1.0000      -0.736866       -20.0511
  34   1.0000      -0.710893       -19.3444
  35   1.0000      -0.699319       -19.0294
  36   1.0000      -0.662144       -18.0178
  37   1.0000      -0.653192       -17.7743
  38   1.0000      -0.630696       -17.1621
  39   1.0000      -0.630129       -17.1467
  40   1.0000      -0.628756       -17.1093
  41   1.0000      -0.601603       -16.3704
  42   1.0000      -0.587056       -15.9746
  43   1.0000      -0.573873       -15.6159
  44   1.0000      -0.558478       -15.1969
  45   1.0000      -0.524151       -14.2629
  46   1.0000      -0.520744       -14.1702
  47   1.0000      -0.500489       -13.6190
  48   1.0000      -0.491074       -13.3628
  49   1.0000      -0.481727       -13.1085
  50   1.0000      -0.475820       -12.9477
  51   1.0000      -0.475081       -12.9276
  52   1.0000      -0.455938       -12.4067
  53   1.0000      -0.447098       -12.1662
  54   1.0000      -0.445030       -12.1099
  55   1.0000      -0.434029       -11.8105
  56   1.0000      -0.432765       -11.7761
  57   1.0000      -0.428787       -11.6679
  58   1.0000      -0.424424       -11.5492
  59   1.0000      -0.417880       -11.3711
  60   1.0000      -0.408866       -11.1258
  61   1.0000      -0.400125       -10.8880
  62   1.0000      -0.387394       -10.5415
  63   1.0000      -0.381920       -10.3926
  64   1.0000      -0.380901       -10.3648
  65   1.0000      -0.373988       -10.1767
  66   1.0000      -0.371699       -10.1145
  67   1.0000      -0.367026        -9.9873
  68   1.0000      -0.366614        -9.9761
  69   1.0000      -0.354040        -9.6339
  70   1.0000      -0.339377        -9.2349
  71   1.0000      -0.337913        -9.1951
  72   1.0000      -0.335366        -9.1258
  73   1.0000      -0.332718        -9.0537
  74   1.0000      -0.331703        -9.0261
  75   1.0000      -0.327965        -8.9244
  76   1.0000      -0.327925        -8.9233
  77   1.0000      -0.298009        -8.1092
  78   1.0000      -0.292037        -7.9467
  79   1.0000      -0.276738        -7.5304
  80   1.0000      -0.262817        -7.1516
  81   1.0000      -0.246081        -6.6962
  82   1.0000      -0.241482        -6.5711
  83   1.0000      -0.239204        -6.5091
  84   0.0000      -0.156159        -4.2493
  85   0.0000      -0.072758        -1.9798
  86   0.0000      -0.032978        -0.8974
  87   0.0000      -0.023190        -0.6310
  88   0.0000      -0.016361        -0.4452

MULLIKEN ATOMIC CHARGES AND SPIN POPULATIONS
--------------------------------------------
   0 C :   -0.505969    0.313492
   1 C :   -0.136206    0.287282
   2 C :   -0.381944   -0.068994
   3 C :    0.404004   -0.019889
   4 C :    0.321980    0.141136
   5 C :   -0.408588   -0.081923
   6 C :    0.547233    0.199647
   7 C :    0.257780   -0.066885
   8 C :   -0.360385    0.108133
   9 H :    0.138910    0.003189
  10 H :    0.152229   -0.005951
  11 C :   -0.373264   -0.016150
  12 H :    0.166954    0.006782
  13 H :    0.166895    0.006780
  14 C :   -0.269877    0.000468
  15 H :    0.139813   -0.000031
  16 H :    0.139896   -0.000031
  17 C :   -0.261126    0.000048
  18 H :    0.148888   -0.000010
  19 H :    0.148906   -0.000010
  20 C :   -0.511604   -0.000035
  21 H :    0.158595    0.000014
  22 H :    0.158566    0.000014
  23 C :   -0.358012    0.003658
  24 H :    0.154530   -0.001769
  25 H :    0.154432   -0.001768
  26 C :   -0.268625   -0.000451
  27 H :    0.145743    0.000113
  28 H :    0.145694    0.000112
  29 C :   -0.264108   -0.000068
  30 H :    0.143836    0.000013
  31 H :    0.143807    0.000014
  32 C :   -0.508304    0.000010
  33 H :    0.162016   -0.000006
  34 H :    0.162040   -0.000006
  35 C :   -0.273492    0.139954
  36 H :    0.147858   -0.000004
  37 H :    0.144838   -0.000003
  38 C :    0.580531   -0.025141
  39 C :   -0.270154    0.039054
  40 C :   -0.097558   -0.020926
  41 C :   -0.111462    0.046636
  42 C :   -0.100751   -0.020909
  43 C :   -0.264212    0.039113
  44 H :    0.113916   -0.002545
  45 H :    0.112924    0.000989
  46 H :    0.125254   -0.002068
  47 H :    0.124561   -0.002065
  48 H :    0.113012    0.000986
Sum of atomic charges         :   -0.0000000

LOEWDIN ATOMIC CHARGES AND SPIN POPULATIONS
-------------------------------------------
   0 C :   -0.156588    0.327298
   1 C :   -0.141492    0.249988
   2 C :   -0.023423   -0.031636
   3 C :   -0.050255    0.006936
   4 C :   -0.013264    0.110791
   5 C :   -0.005233   -0.047837
   6 C :   -0.032067    0.152608
   7 C :   -0.040849   -0.037958
   8 C :    0.020602    0.091810
   9 H :    0.062789   -0.000470
  10 H :    0.067422    0.000035
  11 C :   -0.039185   -0.000539
  12 H :    0.066814    0.004911
  13 H :    0.066783    0.004902
  14 C :   -0.080555   -0.000160
  15 H :    0.043646   -0.000065
  16 H :    0.043672   -0.000065
  17 C :   -0.086632   -0.000044
  18 H :    0.042738    0.000015
  19 H :    0.042740    0.000015
  20 C :   -0.078505   -0.000028
  21 H :    0.033616    0.000008
  22 H :    0.033615    0.000008
  23 C :   -0.043343   -0.000084
  24 H :    0.059726   -0.001482
  25 H :    0.059728   -0.001480
  26 C :   -0.076705   -0.000120
  27 H :    0.046444    0.000097
  28 H :    0.046431    0.000097
  29 C :   -0.090216   -0.000035
  30 H :    0.040677   -0.000012
  31 H :    0.040676   -0.000012
  32 C :   -0.076077    0.000002
  33 H :    0.035209   -0.000003
  34 H :    0.035208   -0.000003
  35 C :   -0.005280    0.111079
  36 H :    0.032810   -0.000005
  37 H :    0.032173   -0.000002
  38 C :   -0.074515   -0.013219
  39 C :   -0.005053    0.031807
  40 C :   -0.036865   -0.012812
  41 C :   -0.027807    0.036559
  42 C :   -0.037243   -0.012807
  43 C :   -0.005636    0.031754
  44 H :    0.051857    0.000201
  45 H :    0.052682   -0.000091
  46 H :    0.058145    0.000067
  47 H :    0.057792    0.000068
  48 H :    0.052792   -0.000090

  Mayer bond orders larger than 0.100000
B(  0-C ,  1-C ) :   2.0362 B(  1-C ,  3-C ) :   1.0855 B(  1-C ,  8-C ) :   0.1130
B(  2-C ,  6-C ) :   0.8583 B(  2-C , 35-C ) :   2.4337 B(  3-C ,  4-C ) :   1.2576
B(  3-C ,  5-C ) :   0.1030 B(  3-C ,  8-C ) :   1.3309 B(  4-C ,  5-C ) :   1.4963
B(  4-C ,  6-C ) :   0.1065 B(  4-C , 11-C ) :   0.9632 B(  5-C ,  6-C ) :   1.3816
B(  5-C ,  9-H ) :   0.9646 B(  6-C ,  7-C ) :   1.3119 B(  6-C ,  8-C ) :   0.1400
B(  6-C , 35-C ) :   0.1170 B(  7-C ,  8-C ) :   1.5118 B(  7-C , 23-C ) :   0.9668
B(  8-C , 10-H ) :   0.9603 B( 11-C , 12-H ) :   0.9519 B( 11-C , 13-H ) :   0.9517
B( 11-C , 14-C ) :   1.0149 B( 14-C , 15-H ) :   0.9615 B( 14-C , 16-H ) :   0.9616
B( 14-C , 17-C ) :   0.9891 B( 17-C , 18-H ) :   0.9701 B( 17-C , 19-H ) :   0.9701
B( 17-C , 20-C ) :   0.9539 B( 20-C , 21-H ) :   0.9731 B( 20-C , 22-H ) :   0.9731
B( 20-C , 36-H ) :   0.9671 B( 23-C , 24-H ) :   0.9552 B( 23-C , 25-H ) :   0.9554
B( 23-C , 26-C ) :   1.0239 B( 26-C , 27-H ) :   0.9604 B( 26-C , 28-H ) :   0.9604
B( 26-C , 29-C ) :   0.9866 B( 29-C , 30-H ) :   0.9717 B( 29-C , 31-H ) :   0.9717
B( 29-C , 32-C ) :   0.9575 B( 32-C , 33-H ) :   0.9721 B( 32-C , 34-H ) :   0.9721
B( 32-C , 37-H ) :   0.9667 B( 35-C , 38-C ) :   1.0234 B( 38-C , 39-C ) :   1.3791
B( 38-C , 43-C ) :   1.3749 B( 39-C , 40-C ) :   1.4841 B( 39-C , 46-H ) :   0.9788
B( 40-C , 41-C ) :   1.4500 B( 40-C , 48-H ) :   0.9720 B( 41-C , 42-C ) :   1.4528
B( 41-C , 44-H ) :   0.9624 B( 42-C , 43-C ) :   1.4836 B( 42-C , 45-H ) :   0.9728
B( 43-C , 47-H ) :   0.9769

FINAL SINGLE POINT ENERGY      -928.919843745324

DIPOLE MOMENT
-------------
                                X             Y             Z
Electronic contribution:      9.15648      -0.22921      -0.00837
Nuclear contribution   :     -5.18751       0.12269       0.01508
                        -----------------------------------------
Total Dipole Moment    :      3.96897      -0.10651       0.00671
                        -----------------------------------------
Magnitude (a.u.)       :      3.97041
Magnitude (Debye)      :     10.09198

Rotational constants in cm-1:     0.006467     0.004312     0.002597
Rotational constants in MHz :   193.866239   129.274253    77.854918

CHEMICAL SHIELDING SUMMARY (ppm)  --  Orbital contribution
----------------------------------------------------------

  Nucleus  Element    Isotropic     Anisotropy
  -------  -------  ------------   ------------
      9       H           96.955         11.469
     10       H           31.632         37.337
     12       H           27.890         51.823
     13       H           27.810         51.824
     15       H          100.195         14.732
     16       H          100.100         14.789
     18       H            0.220         30.809
     19       H            0.320         30.816
     21       H           45.417         12.142
     22       H           45.573         12.074
     24       H           95.609         30.878
     25       H           95.622         30.893
     27       H           54.228         29.894
     28       H           54.228         29.877
     30       H           54.414         19.333
     31       H           54.428         19.312
     33       H            8.105         21.619
     34       H            8.085         21.642
     36       H          -78.010        -64.864
     37       H          -48.611         26.037
     44       H         -126.160       -178.658
     45       H          -57.322         -0.570
     46       H           90.182         19.048
     47       H           85.833         21.104
     48       H          -53.047          1.153

                             ****ORCA TERMINATED NORMALLY****
TOTAL RUN TIME: 0 days 1 hours 31 minutes 23 seconds 538 msec
