                         Program Version 5.0.4 -  RELEASE  -
|  1> ! B3LYP EPR-II AUTOAUX
|  2> %pal nprocs 16 end
|  3> *XYZFile 0 2 opt.xyz
|  4> %EPRNMR
|  5>         GTENSOR   TRUE
|  6>         NUCLEI    = ALL H {SHIFT, AISO, ADIP, AORB}
|  7>         ORI       CenterOfElCharge
|  8> END
|  9>
| 10>                          ****END OF INPUT****

CARTESIAN COORDINATES (ANGSTROEM)
---------------------------------
  C     -4.099903    0.083492   -0.018353
  C     -2.815946    0.043661   -0.012330
  C      2.806008   -0.004269   -0.008539
  C     -1.423131    0.006681   -0.011521
  C     -0.708303   -1.246812   -0.013959
  C      0.675892   -1.194656   -0.012684
  C      1.390969    0.032616   -0.009322
  C      0.692187    1.284040   -0.006826
  C     -0.689714    1.234894   -0.008082
  H      1.259776   -2.114722   -0.014385
  H     -1.277365    2.152363   -0.006417
  C     -1.482678   -2.545270   -0.017742
  H     -2.162956   -2.531884   -0.888087
  H     -2.164001   -2.536305    0.851848
  C     -0.664773   -3.838900   -0.020463
  H     -0.001060   -3.863836   -0.904705
  H     -0.002550   -3.868472    0.864757
  C     -1.549765   -5.091581   -0.024486
  H     -2.216738   -5.067647    0.856694
  H     -2.214979   -5.063238   -0.906864
  C     -0.747242   -6.394947   -0.026958
  H     -0.098785   -6.468624    0.863263
  H     -0.096713   -6.463963   -0.916039
  C      1.475610    2.580851   -0.003105
  H      2.150780    2.571663    0.872485
  H      2.151902    2.575969   -0.877872
  C      0.660276    3.876516   -0.000466
  H     -0.001813    3.904739   -0.885019
  H     -0.003430    3.900164    0.883007
  C      1.545553    5.128838    0.003581
  H      2.210398    5.101571    0.886923
  H      2.212314    5.105900   -0.878438
  C      0.742544    6.432044    0.005924
  H      0.091762    6.499753    0.894507
  H      0.094086    6.504395   -0.883993
  C      4.030665   -0.051608   -0.009917
  H     -1.409442   -7.275742   -0.030044
  H      1.404248    7.313240    0.009096
  C      5.453353   -0.107226   -0.009647
  C      6.121835   -1.352501   -0.012193
  C      7.514506   -1.401458   -0.011853
  C      8.262259   -0.217737   -0.009063
  C      7.609924    1.021237   -0.006590
  C      6.217754    1.081653   -0.006879
  H      9.353772   -0.260949   -0.008833
  H      8.191473    1.945911   -0.004438
  H      5.533939   -2.272105   -0.014369
  H      5.703998    2.044629   -0.004992
  H      8.021809   -2.368853   -0.013791

 Total Charge           Charge          ....    0
 Multiplicity           Mult            ....    2
 Number of Electrons    NEL             ....  169
 Basis Dimension        Dim             ....  583

ORBITAL ENERGIES
----------------
                 SPIN UP ORBITALS
  NO   OCC          E(Eh)            E(eV)
   0   1.0000     -10.254635      -279.0428
   1   1.0000     -10.247893      -278.8593
   2   1.0000     -10.242040      -278.7001
   3   1.0000     -10.233424      -278.4656
   4   1.0000     -10.233292      -278.4620
   5   1.0000     -10.229943      -278.3709
   6   1.0000     -10.226261      -278.2707
   7   1.0000     -10.226109      -278.2666
   8   1.0000     -10.225692      -278.2552
   9   1.0000     -10.225167      -278.2410
  10   1.0000     -10.222296      -278.1628
  11   1.0000     -10.222171      -278.1594
  12   1.0000     -10.218842      -278.0688
  13   1.0000     -10.217588      -278.0347
  14   1.0000     -10.203163      -277.6422
  15   1.0000     -10.194546      -277.4077
  16   1.0000     -10.192459      -277.3509
  17   1.0000     -10.190807      -277.3060
  18   1.0000     -10.189100      -277.2595
  19   1.0000     -10.186259      -277.1822
  20   1.0000     -10.185198      -277.1533
  21   1.0000     -10.183999      -277.1207
  22   1.0000     -10.178654      -276.9752
  23   1.0000     -10.176092      -276.9055
  24   1.0000      -0.893710       -24.3191
  25   1.0000      -0.883938       -24.0532
  26   1.0000      -0.833539       -22.6817
  27   1.0000      -0.815207       -22.1829
  28   1.0000      -0.800960       -21.7952
  29   1.0000      -0.797427       -21.6991
  30   1.0000      -0.776391       -21.1267
  31   1.0000      -0.771151       -20.9841
  32   1.0000      -0.754791       -20.5389
  33   1.0000      -0.738234       -20.0884
  34   1.0000      -0.719716       -19.5845
  35   1.0000      -0.706480       -19.2243
  36   1.0000      -0.662629       -18.0310
  37   1.0000      -0.658872       -17.9288
  38   1.0000      -0.634134       -17.2557
  39   1.0000      -0.629672       -17.1342
  40   1.0000      -0.629067       -17.1178
  41   1.0000      -0.602208       -16.3869
  42   1.0000      -0.585562       -15.9340
  43   1.0000      -0.572879       -15.5888
  44   1.0000      -0.559724       -15.2309
  45   1.0000      -0.526136       -14.3169
  46   1.0000      -0.523432       -14.2433
  47   1.0000      -0.500166       -13.6102
  48   1.0000      -0.493157       -13.4195
  49   1.0000      -0.481019       -13.0892
  50   1.0000      -0.477093       -12.9824
  51   1.0000      -0.475606       -12.9419
  52   1.0000      -0.455898       -12.4056
  53   1.0000      -0.446910       -12.1610
  54   1.0000      -0.444717       -12.1014
  55   1.0000      -0.435409       -11.8481
  56   1.0000      -0.434779       -11.8309
  57   1.0000      -0.429532       -11.6882
  58   1.0000      -0.424419       -11.5490
  59   1.0000      -0.418079       -11.3765
  60   1.0000      -0.410034       -11.1576
  61   1.0000      -0.404630       -11.0105
  62   1.0000      -0.391944       -10.6653
  63   1.0000      -0.382824       -10.4172
  64   1.0000      -0.380978       -10.3669
  65   1.0000      -0.374107       -10.1800
  66   1.0000      -0.371312       -10.1039
  67   1.0000      -0.367764       -10.0074
  68   1.0000      -0.367241        -9.9931
  69   1.0000      -0.354733        -9.6528
  70   1.0000      -0.345354        -9.3976
  71   1.0000      -0.340603        -9.2683
  72   1.0000      -0.335788        -9.1373
  73   1.0000      -0.332184        -9.0392
  74   1.0000      -0.330759        -9.0004
  75   1.0000      -0.329490        -8.9659
  76   1.0000      -0.326231        -8.8772
  77   1.0000      -0.312723        -8.5096
  78   1.0000      -0.293517        -7.9870
  79   1.0000      -0.279049        -7.5933
  80   1.0000      -0.267286        -7.2732
  81   1.0000      -0.264317        -7.1924
  82   1.0000      -0.250106        -6.8057
  83   1.0000      -0.246293        -6.7020
  84   1.0000      -0.221064        -6.0155
  85   0.0000      -0.083387        -2.2691
  86   0.0000      -0.033524        -0.9122
  87   0.0000      -0.032897        -0.8952
  88   0.0000      -0.022303        -0.6069
  89   0.0000       0.001076         0.0293

                 SPIN DOWN ORBITALS
  NO   OCC          E(Eh)            E(eV)
   0   1.0000     -10.251565      -278.9593
   1   1.0000     -10.248358      -278.8720
   2   1.0000     -10.242331      -278.7080
   3   1.0000     -10.231378      -278.4100
   4   1.0000     -10.231269      -278.4070
   5   1.0000     -10.230908      -278.3972
   6   1.0000     -10.226616      -278.2804
   7   1.0000     -10.225667      -278.2545
   8   1.0000     -10.225515      -278.2504
   9   1.0000     -10.224532      -278.2237
  10   1.0000     -10.222583      -278.1706
  11   1.0000     -10.222447      -278.1669
  12   1.0000     -10.218721      -278.0655
  13   1.0000     -10.217228      -278.0249
  14   1.0000     -10.203114      -277.6408
  15   1.0000     -10.194678      -277.4113
  16   1.0000     -10.192463      -277.3510
  17   1.0000     -10.190808      -277.3060
  18   1.0000     -10.189103      -277.2596
  19   1.0000     -10.185199      -277.1534
  20   1.0000     -10.182594      -277.0825
  21   1.0000     -10.179678      -277.0031
  22   1.0000     -10.178653      -276.9752
  23   1.0000     -10.176093      -276.9056
  24   1.0000      -0.890697       -24.2371
  25   1.0000      -0.883085       -24.0300
  26   1.0000      -0.831008       -22.6129
  27   1.0000      -0.813615       -22.1396
  28   1.0000      -0.800473       -21.7820
  29   1.0000      -0.794672       -21.6241
  30   1.0000      -0.775940       -21.1144
  31   1.0000      -0.770610       -20.9694
  32   1.0000      -0.751280       -20.4434
  33   1.0000      -0.737394       -20.0655
  34   1.0000      -0.711092       -19.3498
  35   1.0000      -0.700108       -19.0509
  36   1.0000      -0.661815       -18.0089
  37   1.0000      -0.653864       -17.7925
  38   1.0000      -0.631223       -17.1764
  39   1.0000      -0.629120       -17.1192
  40   1.0000      -0.628622       -17.1057
  41   1.0000      -0.600906       -16.3515
  42   1.0000      -0.585431       -15.9304
  43   1.0000      -0.572365       -15.5748
  44   1.0000      -0.559033       -15.2121
  45   1.0000      -0.524406       -14.2698
  46   1.0000      -0.521384       -14.1876
  47   1.0000      -0.499242       -13.5851
  48   1.0000      -0.492079       -13.3901
  49   1.0000      -0.480914       -13.0863
  50   1.0000      -0.476738       -12.9727
  51   1.0000      -0.474944       -12.9239
  52   1.0000      -0.455534       -12.3957
  53   1.0000      -0.446136       -12.1400
  54   1.0000      -0.444560       -12.0971
  55   1.0000      -0.434106       -11.8126
  56   1.0000      -0.433268       -11.7898
  57   1.0000      -0.429387       -11.6842
  58   1.0000      -0.423117       -11.5136
  59   1.0000      -0.417899       -11.3716
  60   1.0000      -0.409398       -11.1403
  61   1.0000      -0.401568       -10.9272
  62   1.0000      -0.387415       -10.5421
  63   1.0000      -0.382206       -10.4004
  64   1.0000      -0.380505       -10.3541
  65   1.0000      -0.374031       -10.1779
  66   1.0000      -0.371039       -10.0965
  67   1.0000      -0.366674        -9.9777
  68   1.0000      -0.365254        -9.9391
  69   1.0000      -0.352398        -9.5892
  70   1.0000      -0.340497        -9.2654
  71   1.0000      -0.337959        -9.1963
  72   1.0000      -0.335761        -9.1365
  73   1.0000      -0.332099        -9.0369
  74   1.0000      -0.330579        -8.9955
  75   1.0000      -0.329122        -8.9559
  76   1.0000      -0.325813        -8.8658
  77   1.0000      -0.298864        -8.1325
  78   1.0000      -0.292588        -7.9617
  79   1.0000      -0.277545        -7.5524
  80   1.0000      -0.262697        -7.1483
  81   1.0000      -0.246716        -6.7135
  82   1.0000      -0.240731        -6.5506
  83   1.0000      -0.239669        -6.5217
  84   0.0000      -0.156410        -4.2561
  85   0.0000      -0.072398        -1.9701
  86   0.0000      -0.032074        -0.8728
  87   0.0000      -0.022447        -0.6108
  88   0.0000      -0.015633        -0.4254

MULLIKEN ATOMIC CHARGES AND SPIN POPULATIONS
--------------------------------------------
   0 C :   -0.508890    0.312002
   1 C :   -0.134808    0.285423
   2 C :   -0.383129   -0.068716
   3 C :    0.407253   -0.018576
   4 C :    0.329233    0.140435
   5 C :   -0.415548   -0.081131
   6 C :    0.552402    0.200160
   7 C :    0.264182   -0.065783
   8 C :   -0.365469    0.107221
   9 H :    0.137191    0.003167
  10 H :    0.150667   -0.005945
  11 C :   -0.370527   -0.016297
  12 H :    0.164767    0.007112
  13 H :    0.164676    0.007114
  14 C :   -0.264271    0.000473
  15 H :    0.136975   -0.000033
  16 H :    0.136940   -0.000032
  17 C :   -0.252400    0.000057
  18 H :    0.146007   -0.000010
  19 H :    0.146046   -0.000010
  20 C :   -0.508920   -0.000035
  21 H :    0.156450    0.000016
  22 H :    0.156443    0.000016
  23 C :   -0.354657    0.003596
  24 H :    0.151972   -0.001789
  25 H :    0.151862   -0.001790
  26 C :   -0.263677   -0.000437
  27 H :    0.143014    0.000120
  28 H :    0.142995    0.000120
  29 C :   -0.255101   -0.000071
  30 H :    0.140819    0.000014
  31 H :    0.140798    0.000014
  32 C :   -0.505781    0.000011
  33 H :    0.159963   -0.000006
  34 H :    0.159981   -0.000006
  35 C :   -0.274680    0.140126
  36 H :    0.146260   -0.000004
  37 H :    0.143222   -0.000003
  38 C :    0.587668   -0.024905
  39 C :   -0.270837    0.039026
  40 C :   -0.096454   -0.020805
  41 C :   -0.109733    0.046635
  42 C :   -0.099395   -0.020787
  43 C :   -0.265640    0.039077
  44 H :    0.112330   -0.002574
  45 H :    0.111492    0.000998
  46 H :    0.123688   -0.002092
  47 H :    0.123107   -0.002088
  48 H :    0.111513    0.000994
Sum of atomic charges         :   -0.0000000

LOEWDIN ATOMIC CHARGES AND SPIN POPULATIONS
-------------------------------------------
   0 C :   -0.156626    0.325639
   1 C :   -0.142761    0.248068
   2 C :   -0.022731   -0.031076
   3 C :   -0.051097    0.008150
   4 C :   -0.014872    0.110314
   5 C :   -0.006544   -0.047037
   6 C :   -0.032438    0.152865
   7 C :   -0.042446   -0.037009
   8 C :    0.019398    0.091259
   9 H :    0.065241   -0.000412
  10 H :    0.070022   -0.000056
  11 C :   -0.043566   -0.000529
  12 H :    0.069541    0.005147
  13 H :    0.069500    0.005145
  14 C :   -0.085251   -0.000165
  15 H :    0.045991   -0.000067
  16 H :    0.045985   -0.000067
  17 C :   -0.092523   -0.000035
  18 H :    0.045375    0.000016
  19 H :    0.045383    0.000016
  20 C :   -0.084653   -0.000027
  21 H :    0.035940    0.000010
  22 H :    0.035942    0.000010
  23 C :   -0.047398   -0.000072
  24 H :    0.062156   -0.001495
  25 H :    0.062163   -0.001495
  26 C :   -0.081533   -0.000114
  27 H :    0.048907    0.000103
  28 H :    0.048897    0.000104
  29 C :   -0.096021   -0.000038
  30 H :    0.043193   -0.000012
  31 H :    0.043193   -0.000012
  32 C :   -0.082275    0.000001
  33 H :    0.037598   -0.000004
  34 H :    0.037599   -0.000004
  35 C :   -0.004803    0.111027
  36 H :    0.035094   -0.000005
  37 H :    0.034435   -0.000002
  38 C :   -0.076262   -0.012948
  39 C :   -0.006770    0.031781
  40 C :   -0.039403   -0.012648
  41 C :   -0.030196    0.036513
  42 C :   -0.039797   -0.012645
  43 C :   -0.007178    0.031725
  44 H :    0.054372    0.000160
  45 H :    0.055205   -0.000072
  46 H :    0.060512    0.000032
  47 H :    0.060207    0.000032
  48 H :    0.055293   -0.000072

  Mayer bond orders larger than 0.100000
B(  0-C ,  1-C ) :   2.0311 B(  1-C ,  3-C ) :   1.0937 B(  1-C ,  8-C ) :   0.1162
B(  2-C ,  6-C ) :   0.8568 B(  2-C ,  7-C ) :   0.1005 B(  2-C , 35-C ) :   2.4325
B(  3-C ,  4-C ) :   1.2589 B(  3-C ,  5-C ) :   0.1057 B(  3-C ,  8-C ) :   1.3324
B(  4-C ,  5-C ) :   1.4957 B(  4-C ,  6-C ) :   0.1109 B(  4-C , 11-C ) :   0.9645
B(  5-C ,  6-C ) :   1.3842 B(  5-C ,  9-H ) :   0.9658 B(  6-C ,  7-C ) :   1.3150
B(  6-C ,  8-C ) :   0.1433 B(  6-C , 35-C ) :   0.1224 B(  7-C ,  8-C ) :   1.5117
B(  7-C , 23-C ) :   0.9680 B(  8-C , 10-H ) :   0.9614 B( 11-C , 12-H ) :   0.9513
B( 11-C , 13-H ) :   0.9512 B( 11-C , 14-C ) :   1.0160 B( 14-C , 15-H ) :   0.9607
B( 14-C , 16-H ) :   0.9607 B( 14-C , 17-C ) :   0.9910 B( 17-C , 18-H ) :   0.9695
B( 17-C , 19-H ) :   0.9695 B( 17-C , 20-C ) :   0.9536 B( 20-C , 21-H ) :   0.9731
B( 20-C , 22-H ) :   0.9731 B( 20-C , 36-H ) :   0.9670 B( 23-C , 24-H ) :   0.9548
B( 23-C , 25-H ) :   0.9550 B( 23-C , 26-C ) :   1.0253 B( 26-C , 27-H ) :   0.9596
B( 26-C , 28-H ) :   0.9597 B( 26-C , 29-C ) :   0.9885 B( 29-C , 30-H ) :   0.9711
B( 29-C , 31-H ) :   0.9710 B( 29-C , 32-C ) :   0.9573 B( 32-C , 33-H ) :   0.9721
B( 32-C , 34-H ) :   0.9721 B( 32-C , 37-H ) :   0.9665 B( 35-C , 38-C ) :   1.0249
B( 38-C , 39-C ) :   1.3797 B( 38-C , 43-C ) :   1.3753 B( 39-C , 40-C ) :   1.4837
B( 39-C , 41-C ) :   0.1008 B( 39-C , 46-H ) :   0.9795 B( 40-C , 41-C ) :   1.4500
B( 40-C , 48-H ) :   0.9724 B( 41-C , 42-C ) :   1.4525 B( 41-C , 43-C ) :   0.1021
B( 41-C , 44-H ) :   0.9627 B( 42-C , 43-C ) :   1.4837 B( 42-C , 45-H ) :   0.9733
B( 43-C , 47-H ) :   0.9776

FINAL SINGLE POINT ENERGY      -928.918713357767

DIPOLE MOMENT
-------------
                                X             Y             Z
Electronic contribution:      9.15053      -0.22429       0.00179
Nuclear contribution   :     -5.17354       0.11309       0.00539
                        -----------------------------------------
Total Dipole Moment    :      3.97699      -0.11120       0.00718
                        -----------------------------------------
Magnitude (a.u.)       :      3.97855
Magnitude (Debye)      :     10.11268

Rotational constants in cm-1:     0.006500     0.004325     0.002607
Rotational constants in MHz :   194.876145   129.670307    78.163739

CHEMICAL SHIELDING SUMMARY (ppm)  --  Orbital contribution
----------------------------------------------------------

  Nucleus  Element    Isotropic     Anisotropy
  -------  -------  ------------   ------------
      9       H           97.163         11.787
     10       H           32.210         37.938
     12       H           28.049         51.761
     13       H           28.001         51.773
     15       H           99.934         14.577
     16       H           99.867         14.590
     18       H            0.498         30.612
     19       H            0.558         30.603
     21       H           44.307         12.373
     22       H           44.390         12.345
     24       H           95.769         30.803
     25       H           95.811         30.804
     27       H           54.176         29.796
     28       H           54.142         29.792
     30       H           54.631         19.187
     31       H           54.679         19.162
     33       H            7.304         21.827
     34       H            7.328         21.834
     36       H          -77.525        -65.280
     37       H          -48.152         25.456
     44       H         -124.679       -177.775
     45       H          -56.040         -0.295
     46       H           89.515         19.057
     47       H           85.947         21.232
     48       H          -52.411          1.246

                             ****ORCA TERMINATED NORMALLY****
TOTAL RUN TIME: 0 days 1 hours 31 minutes 13 seconds 726 msec
