                         Program Version 5.0.4 -  RELEASE  -
|  1> ! B3LYP EPR-II AUTOAUX
|  2> %pal nprocs 16 end
|  3> *XYZFile 0 2 opt_EPRII.xyz
|  4> %EPRNMR
|  5>         GTENSOR   TRUE
|  6>         NUCLEI    = ALL H {SHIFT, AISO, ADIP, AORB}
|  7>         ORI       GIAO
|  8> END
|  9>
| 10>                          ****END OF INPUT****

CARTESIAN COORDINATES (ANGSTROEM)
---------------------------------
  C     -4.113085    0.073637   -0.018204
  C     -2.824890    0.051463   -0.012975
  C      2.807106   -0.006085   -0.009360
  C     -1.427304    0.011936   -0.012516
  C     -0.714994   -1.246467   -0.014833
  C      0.672777   -1.198020   -0.013556
  C      1.389321    0.032206   -0.010227
  C      0.692314    1.288046   -0.007400
  C     -0.692930    1.243500   -0.008663
  H      1.250439   -2.114950   -0.015211
  H     -1.274541    2.157673   -0.006761
  C     -1.494418   -2.547167   -0.018707
  H     -2.164603   -2.536718   -0.887834
  H     -2.167297   -2.540332    0.848356
  C     -0.667445   -3.841890   -0.020097
  H     -0.010652   -3.867183   -0.900371
  H     -0.013781   -3.870976    0.862393
  C     -1.554353   -5.100241   -0.024427
  H     -2.214347   -5.080188    0.852514
  H     -2.210859   -5.076577   -0.903892
  C     -0.740810   -6.405939   -0.025519
  H     -0.099373   -6.471396    0.860733
  H     -0.095182   -6.467269   -0.909017
  C      1.480981    2.586933   -0.003308
  H      2.147219    2.579608    0.870093
  H      2.148475    2.584347   -0.875776
  C      0.657049    3.883874   -0.000385
  H      0.002570    3.912375   -0.881476
  H      0.000517    3.907167    0.879327
  C      1.544186    5.141911    0.004404
  H      2.200662    5.118683    0.884580
  H      2.203073    5.123698   -0.874088
  C      0.730302    6.447485    0.007035
  H      0.084864    6.507040    0.890398
  H      0.087982    6.512581   -0.878209
  C      4.035162   -0.048660   -0.010298
  H     -1.396602   -7.282494   -0.029107
  H      1.385553    7.324507    0.010933
  C      5.461584   -0.108003   -0.009969
  C      6.125738   -1.360410   -0.012186
  C      7.523062   -1.414769   -0.011836
  C      8.278291   -0.229049   -0.009330
  C      7.627542    1.017125   -0.007149
  C      6.230628    1.082692   -0.007467
  H      9.363866   -0.275817   -0.009089
  H      8.209979    1.934333   -0.005222
  H      5.536832   -2.272616   -0.014134
  H      5.722748    2.042341   -0.005815
  H      8.024952   -2.378429   -0.013531

 Total Charge           Charge          ....    0
 Multiplicity           Mult            ....    2
 Number of Electrons    NEL             ....  169
 Basis Dimension        Dim             ....  583

ORBITAL ENERGIES
----------------
                 SPIN UP ORBITALS
  NO   OCC          E(Eh)            E(eV)
   0   1.0000     -10.255628      -279.0698
   1   1.0000     -10.248830      -278.8849
   2   1.0000     -10.242915      -278.7239
   3   1.0000     -10.234162      -278.4857
   4   1.0000     -10.233718      -278.4736
   5   1.0000     -10.230822      -278.3948
   6   1.0000     -10.226587      -278.2796
   7   1.0000     -10.226555      -278.2787
   8   1.0000     -10.226400      -278.2745
   9   1.0000     -10.225510      -278.2503
  10   1.0000     -10.222676      -278.1732
  11   1.0000     -10.222563      -278.1701
  12   1.0000     -10.219025      -278.0738
  13   1.0000     -10.217920      -278.0437
  14   1.0000     -10.202205      -277.6161
  15   1.0000     -10.193608      -277.3822
  16   1.0000     -10.191232      -277.3175
  17   1.0000     -10.189426      -277.2684
  18   1.0000     -10.187883      -277.2264
  19   1.0000     -10.187258      -277.2094
  20   1.0000     -10.185122      -277.1513
  21   1.0000     -10.183854      -277.1168
  22   1.0000     -10.176423      -276.9145
  23   1.0000     -10.173880      -276.8454
  24   1.0000      -0.891980       -24.2720
  25   1.0000      -0.881452       -23.9855
  26   1.0000      -0.832071       -22.6418
  27   1.0000      -0.814024       -22.1507
  28   1.0000      -0.799859       -21.7653
  29   1.0000      -0.795997       -21.6602
  30   1.0000      -0.775499       -21.1024
  31   1.0000      -0.770277       -20.9603
  32   1.0000      -0.753664       -20.5082
  33   1.0000      -0.737715       -20.0742
  34   1.0000      -0.719068       -19.5668
  35   1.0000      -0.706225       -19.2173
  36   1.0000      -0.662909       -18.0387
  37   1.0000      -0.658124       -17.9085
  38   1.0000      -0.633637       -17.2421
  39   1.0000      -0.630682       -17.1617
  40   1.0000      -0.629189       -17.1211
  41   1.0000      -0.602905       -16.4059
  42   1.0000      -0.587189       -15.9782
  43   1.0000      -0.574408       -15.6304
  44   1.0000      -0.559179       -15.2160
  45   1.0000      -0.525824       -14.3084
  46   1.0000      -0.522826       -14.2268
  47   1.0000      -0.501423       -13.6444
  48   1.0000      -0.492134       -13.3917
  49   1.0000      -0.481807       -13.1106
  50   1.0000      -0.476457       -12.9651
  51   1.0000      -0.475446       -12.9375
  52   1.0000      -0.456338       -12.4176
  53   1.0000      -0.447935       -12.1889
  54   1.0000      -0.445199       -12.1145
  55   1.0000      -0.435908       -11.8617
  56   1.0000      -0.433413       -11.7938
  57   1.0000      -0.428922       -11.6716
  58   1.0000      -0.425698       -11.5838
  59   1.0000      -0.418038       -11.3754
  60   1.0000      -0.409519       -11.1436
  61   1.0000      -0.403365       -10.9761
  62   1.0000      -0.391818       -10.6619
  63   1.0000      -0.382537       -10.4094
  64   1.0000      -0.381394       -10.3783
  65   1.0000      -0.374068       -10.1789
  66   1.0000      -0.371974       -10.1219
  67   1.0000      -0.369111       -10.0440
  68   1.0000      -0.367175        -9.9914
  69   1.0000      -0.356274        -9.6947
  70   1.0000      -0.345653        -9.4057
  71   1.0000      -0.339471        -9.2375
  72   1.0000      -0.335399        -9.1267
  73   1.0000      -0.332999        -9.0614
  74   1.0000      -0.331782        -9.0283
  75   1.0000      -0.328458        -8.9378
  76   1.0000      -0.328323        -8.9341
  77   1.0000      -0.311895        -8.4871
  78   1.0000      -0.292962        -7.9719
  79   1.0000      -0.278248        -7.5715
  80   1.0000      -0.267224        -7.2715
  81   1.0000      -0.263908        -7.1813
  82   1.0000      -0.250835        -6.8256
  83   1.0000      -0.245886        -6.6909
  84   1.0000      -0.220860        -6.0099
  85   0.0000      -0.083665        -2.2766
  86   0.0000      -0.034433        -0.9370
  87   0.0000      -0.033607        -0.9145
  88   0.0000      -0.023038        -0.6269
  89   0.0000       0.001467         0.0399

                 SPIN DOWN ORBITALS
  NO   OCC          E(Eh)            E(eV)
   0   1.0000     -10.252566      -278.9865
   1   1.0000     -10.249296      -278.8975
   2   1.0000     -10.243225      -278.7323
   3   1.0000     -10.232111      -278.4299
   4   1.0000     -10.231800      -278.4214
   5   1.0000     -10.231711      -278.4190
   6   1.0000     -10.227501      -278.3045
   7   1.0000     -10.225962      -278.2626
   8   1.0000     -10.225807      -278.2583
   9   1.0000     -10.224875      -278.2330
  10   1.0000     -10.222964      -278.1810
  11   1.0000     -10.222841      -278.1776
  12   1.0000     -10.219062      -278.0748
  13   1.0000     -10.217402      -278.0297
  14   1.0000     -10.202156      -277.6148
  15   1.0000     -10.193739      -277.3857
  16   1.0000     -10.191235      -277.3176
  17   1.0000     -10.189427      -277.2684
  18   1.0000     -10.187887      -277.2265
  19   1.0000     -10.183855      -277.1168
  20   1.0000     -10.183560      -277.1088
  21   1.0000     -10.180787      -277.0333
  22   1.0000     -10.176423      -276.9145
  23   1.0000     -10.173881      -276.8454
  24   1.0000      -0.888988       -24.1906
  25   1.0000      -0.880611       -23.9626
  26   1.0000      -0.829581       -22.5741
  27   1.0000      -0.812421       -22.1071
  28   1.0000      -0.799366       -21.7519
  29   1.0000      -0.793257       -21.5856
  30   1.0000      -0.775061       -21.0905
  31   1.0000      -0.769740       -20.9457
  32   1.0000      -0.750191       -20.4137
  33   1.0000      -0.736864       -20.0511
  34   1.0000      -0.710891       -19.3443
  35   1.0000      -0.699313       -19.0293
  36   1.0000      -0.662142       -18.0178
  37   1.0000      -0.653193       -17.7743
  38   1.0000      -0.630698       -17.1622
  39   1.0000      -0.630127       -17.1466
  40   1.0000      -0.628768       -17.1096
  41   1.0000      -0.601602       -16.3704
  42   1.0000      -0.587056       -15.9746
  43   1.0000      -0.573873       -15.6159
  44   1.0000      -0.558489       -15.1972
  45   1.0000      -0.524151       -14.2629
  46   1.0000      -0.520738       -14.1700
  47   1.0000      -0.500497       -13.6192
  48   1.0000      -0.491073       -13.3628
  49   1.0000      -0.481729       -13.1085
  50   1.0000      -0.475818       -12.9477
  51   1.0000      -0.475095       -12.9280
  52   1.0000      -0.455949       -12.4070
  53   1.0000      -0.447103       -12.1663
  54   1.0000      -0.445042       -12.1102
  55   1.0000      -0.434028       -11.8105
  56   1.0000      -0.432763       -11.7761
  57   1.0000      -0.428785       -11.6678
  58   1.0000      -0.424419       -11.5490
  59   1.0000      -0.417877       -11.3710
  60   1.0000      -0.408865       -11.1258
  61   1.0000      -0.400136       -10.8883
  62   1.0000      -0.387395       -10.5416
  63   1.0000      -0.381920       -10.3926
  64   1.0000      -0.380911       -10.3651
  65   1.0000      -0.373987       -10.1767
  66   1.0000      -0.371709       -10.1147
  67   1.0000      -0.367024        -9.9872
  68   1.0000      -0.366611        -9.9760
  69   1.0000      -0.354038        -9.6339
  70   1.0000      -0.339376        -9.2349
  71   1.0000      -0.337912        -9.1951
  72   1.0000      -0.335366        -9.1258
  73   1.0000      -0.332720        -9.0538
  74   1.0000      -0.331703        -9.0261
  75   1.0000      -0.327962        -8.9243
  76   1.0000      -0.327924        -8.9233
  77   1.0000      -0.298010        -8.1093
  78   1.0000      -0.292044        -7.9469
  79   1.0000      -0.276752        -7.5308
  80   1.0000      -0.262821        -7.1517
  81   1.0000      -0.246084        -6.6963
  82   1.0000      -0.241476        -6.5709
  83   1.0000      -0.239189        -6.5087
  84   0.0000      -0.156155        -4.2492
  85   0.0000      -0.072761        -1.9799
  86   0.0000      -0.032990        -0.8977
  87   0.0000      -0.023194        -0.6311
  88   0.0000      -0.016363        -0.4453

MULLIKEN ATOMIC CHARGES AND SPIN POPULATIONS
--------------------------------------------
   0 C :   -0.506057    0.313490
   1 C :   -0.136068    0.287273
   2 C :   -0.381823   -0.069030
   3 C :    0.404031   -0.019881
   4 C :    0.321986    0.141129
   5 C :   -0.408643   -0.081923
   6 C :    0.547353    0.199671
   7 C :    0.257702   -0.066868
   8 C :   -0.360449    0.108104
   9 H :    0.138915    0.003189
  10 H :    0.152240   -0.005948
  11 C :   -0.373223   -0.016152
  12 H :    0.166952    0.006784
  13 H :    0.166894    0.006782
  14 C :   -0.269905    0.000468
  15 H :    0.139815   -0.000031
  16 H :    0.139898   -0.000031
  17 C :   -0.261138    0.000048
  18 H :    0.148891   -0.000010
  19 H :    0.148910   -0.000010
  20 C :   -0.511573   -0.000034
  21 H :    0.158587    0.000014
  22 H :    0.158558    0.000014
  23 C :   -0.357968    0.003657
  24 H :    0.154528   -0.001768
  25 H :    0.154430   -0.001767
  26 C :   -0.268651   -0.000452
  27 H :    0.145747    0.000113
  28 H :    0.145698    0.000113
  29 C :   -0.264115   -0.000068
  30 H :    0.143838    0.000013
  31 H :    0.143808    0.000014
  32 C :   -0.508271    0.000010
  33 H :    0.162008   -0.000006
  34 H :    0.162032   -0.000006
  35 C :   -0.273651    0.139984
  36 H :    0.147852   -0.000004
  37 H :    0.144832   -0.000003
  38 C :    0.580521   -0.025159
  39 C :   -0.270212    0.039069
  40 C :   -0.097542   -0.020940
  41 C :   -0.111454    0.046653
  42 C :   -0.100734   -0.020923
  43 C :   -0.264273    0.039128
  44 H :    0.113923   -0.002547
  45 H :    0.112933    0.000990
  46 H :    0.125269   -0.002070
  47 H :    0.124576   -0.002067
  48 H :    0.113021    0.000987
Sum of atomic charges         :   -0.0000000

LOEWDIN ATOMIC CHARGES AND SPIN POPULATIONS
-------------------------------------------
   0 C :   -0.156650    0.327295
   1 C :   -0.141388    0.249981
   2 C :   -0.023331   -0.031658
   3 C :   -0.050216    0.006933
   4 C :   -0.013258    0.110796
   5 C :   -0.005266   -0.047840
   6 C :   -0.032024    0.152624
   7 C :   -0.040866   -0.037945
   8 C :    0.020542    0.091790
   9 H :    0.062790   -0.000470
  10 H :    0.067426    0.000035
  11 C :   -0.039165   -0.000540
  12 H :    0.066816    0.004912
  13 H :    0.066784    0.004903
  14 C :   -0.080571   -0.000160
  15 H :    0.043646   -0.000065
  16 H :    0.043672   -0.000065
  17 C :   -0.086640   -0.000044
  18 H :    0.042740    0.000015
  19 H :    0.042741    0.000015
  20 C :   -0.078488   -0.000028
  21 H :    0.033612    0.000008
  22 H :    0.033611    0.000008
  23 C :   -0.043328   -0.000085
  24 H :    0.059726   -0.001481
  25 H :    0.059728   -0.001479
  26 C :   -0.076719   -0.000120
  27 H :    0.046445    0.000097
  28 H :    0.046432    0.000097
  29 C :   -0.090224   -0.000035
  30 H :    0.040678   -0.000012
  31 H :    0.040677   -0.000012
  32 C :   -0.076058    0.000002
  33 H :    0.035206   -0.000003
  34 H :    0.035205   -0.000003
  35 C :   -0.005383    0.111098
  36 H :    0.032808   -0.000005
  37 H :    0.032171   -0.000002
  38 C :   -0.074527   -0.013230
  39 C :   -0.005094    0.031818
  40 C :   -0.036851   -0.012821
  41 C :   -0.027798    0.036571
  42 C :   -0.037226   -0.012817
  43 C :   -0.005683    0.031765
  44 H :    0.051862    0.000200
  45 H :    0.052687   -0.000091
  46 H :    0.058151    0.000067
  47 H :    0.057798    0.000068
  48 H :    0.052797   -0.000090

  Mayer bond orders larger than 0.100000
B(  0-C ,  1-C ) :   2.0362 B(  1-C ,  3-C ) :   1.0855 B(  1-C ,  8-C ) :   0.1130
B(  2-C ,  6-C ) :   0.8582 B(  2-C , 35-C ) :   2.4337 B(  3-C ,  4-C ) :   1.2576
B(  3-C ,  5-C ) :   0.1030 B(  3-C ,  8-C ) :   1.3309 B(  4-C ,  5-C ) :   1.4963
B(  4-C ,  6-C ) :   0.1065 B(  4-C , 11-C ) :   0.9632 B(  5-C ,  6-C ) :   1.3816
B(  5-C ,  9-H ) :   0.9646 B(  6-C ,  7-C ) :   1.3118 B(  6-C ,  8-C ) :   0.1400
B(  6-C , 35-C ) :   0.1170 B(  7-C ,  8-C ) :   1.5118 B(  7-C , 23-C ) :   0.9668
B(  8-C , 10-H ) :   0.9603 B( 11-C , 12-H ) :   0.9519 B( 11-C , 13-H ) :   0.9517
B( 11-C , 14-C ) :   1.0149 B( 14-C , 15-H ) :   0.9615 B( 14-C , 16-H ) :   0.9616
B( 14-C , 17-C ) :   0.9891 B( 17-C , 18-H ) :   0.9701 B( 17-C , 19-H ) :   0.9701
B( 17-C , 20-C ) :   0.9539 B( 20-C , 21-H ) :   0.9731 B( 20-C , 22-H ) :   0.9731
B( 20-C , 36-H ) :   0.9671 B( 23-C , 24-H ) :   0.9552 B( 23-C , 25-H ) :   0.9554
B( 23-C , 26-C ) :   1.0239 B( 26-C , 27-H ) :   0.9604 B( 26-C , 28-H ) :   0.9604
B( 26-C , 29-C ) :   0.9866 B( 29-C , 30-H ) :   0.9717 B( 29-C , 31-H ) :   0.9717
B( 29-C , 32-C ) :   0.9575 B( 32-C , 33-H ) :   0.9721 B( 32-C , 34-H ) :   0.9721
B( 32-C , 37-H ) :   0.9667 B( 35-C , 38-C ) :   1.0234 B( 38-C , 39-C ) :   1.3791
B( 38-C , 43-C ) :   1.3749 B( 39-C , 40-C ) :   1.4841 B( 39-C , 46-H ) :   0.9788
B( 40-C , 41-C ) :   1.4500 B( 40-C , 48-H ) :   0.9720 B( 41-C , 42-C ) :   1.4528
B( 41-C , 44-H ) :   0.9624 B( 42-C , 43-C ) :   1.4836 B( 42-C , 45-H ) :   0.9728
B( 43-C , 47-H ) :   0.9769

FINAL SINGLE POINT ENERGY      -928.919843688021

DIPOLE MOMENT
-------------
                                X             Y             Z
Electronic contribution:      9.15590      -0.22929      -0.00837
Nuclear contribution   :     -5.18751       0.12269       0.01508
                        -----------------------------------------
Total Dipole Moment    :      3.96840      -0.10660       0.00670
                        -----------------------------------------
Magnitude (a.u.)       :      3.96983
Magnitude (Debye)      :     10.09051

Rotational constants in cm-1:     0.006467     0.004312     0.002597
Rotational constants in MHz :   193.866239   129.274253    77.854918

CHEMICAL SHIELDING SUMMARY (ppm)  --  Orbital contribution
----------------------------------------------------------

  Nucleus  Element    Isotropic     Anisotropy
  -------  -------  ------------   ------------
      9       H           24.175         14.086
     10       H           25.013         10.075
     12       H           29.175          6.977
     13       H           29.170          6.950
     15       H           30.229          5.022
     16       H           30.229          5.013
     18       H           30.315          7.148
     19       H           30.315          7.152
     21       H           30.964          7.836
     22       H           30.965          7.835
     24       H           28.875          6.375
     25       H           28.875          6.378
     27       H           30.130          5.356
     28       H           30.129          5.353
     30       H           30.263          6.236
     31       H           30.263          6.238
     33       H           30.894          8.399
     34       H           30.894          8.401
     36       H           30.679         10.423
     37       H           30.680         10.329
     44       H           24.099          4.896
     45       H           24.180          5.596
     46       H           23.901          7.760
     47       H           23.888          7.843
     48       H           24.163          5.321

                             ****ORCA TERMINATED NORMALLY****
TOTAL RUN TIME: 0 days 1 hours 31 minutes 50 seconds 599 msec
