                         Program Version 5.0.4 -  RELEASE  -
|  1> ! B3LYP EPR-II AUTOAUX
|  2> %pal nprocs 16 end
|  3> *XYZFile 0 2 opt.xyz
|  4> %EPRNMR
|  5>         GTENSOR   TRUE
|  6>         NUCLEI    = ALL H {SHIFT, AISO, ADIP, AORB}
|  7> END
|  8>
|  9>                          ****END OF INPUT****

CARTESIAN COORDINATES (ANGSTROEM)
---------------------------------
  C     -4.099903    0.083492   -0.018353
  C     -2.815946    0.043661   -0.012330
  C      2.806008   -0.004269   -0.008539
  C     -1.423131    0.006681   -0.011521
  C     -0.708303   -1.246812   -0.013959
  C      0.675892   -1.194656   -0.012684
  C      1.390969    0.032616   -0.009322
  C      0.692187    1.284040   -0.006826
  C     -0.689714    1.234894   -0.008082
  H      1.259776   -2.114722   -0.014385
  H     -1.277365    2.152363   -0.006417
  C     -1.482678   -2.545270   -0.017742
  H     -2.162956   -2.531884   -0.888087
  H     -2.164001   -2.536305    0.851848
  C     -0.664773   -3.838900   -0.020463
  H     -0.001060   -3.863836   -0.904705
  H     -0.002550   -3.868472    0.864757
  C     -1.549765   -5.091581   -0.024486
  H     -2.216738   -5.067647    0.856694
  H     -2.214979   -5.063238   -0.906864
  C     -0.747242   -6.394947   -0.026958
  H     -0.098785   -6.468624    0.863263
  H     -0.096713   -6.463963   -0.916039
  C      1.475610    2.580851   -0.003105
  H      2.150780    2.571663    0.872485
  H      2.151902    2.575969   -0.877872
  C      0.660276    3.876516   -0.000466
  H     -0.001813    3.904739   -0.885019
  H     -0.003430    3.900164    0.883007
  C      1.545553    5.128838    0.003581
  H      2.210398    5.101571    0.886923
  H      2.212314    5.105900   -0.878438
  C      0.742544    6.432044    0.005924
  H      0.091762    6.499753    0.894507
  H      0.094086    6.504395   -0.883993
  C      4.030665   -0.051608   -0.009917
  H     -1.409442   -7.275742   -0.030044
  H      1.404248    7.313240    0.009096
  C      5.453353   -0.107226   -0.009647
  C      6.121835   -1.352501   -0.012193
  C      7.514506   -1.401458   -0.011853
  C      8.262259   -0.217737   -0.009063
  C      7.609924    1.021237   -0.006590
  C      6.217754    1.081653   -0.006879
  H      9.353772   -0.260949   -0.008833
  H      8.191473    1.945911   -0.004438
  H      5.533939   -2.272105   -0.014369
  H      5.703998    2.044629   -0.004992
  H      8.021809   -2.368853   -0.013791

 Total Charge           Charge          ....    0
 Multiplicity           Mult            ....    2
 Number of Electrons    NEL             ....  169
 Basis Dimension        Dim             ....  583

ORBITAL ENERGIES
----------------
                 SPIN UP ORBITALS
  NO   OCC          E(Eh)            E(eV)
   0   1.0000     -10.255150      -279.0568
   1   1.0000     -10.247749      -278.8554
   2   1.0000     -10.242080      -278.7012
   3   1.0000     -10.233399      -278.4650
   4   1.0000     -10.232912      -278.4517
   5   1.0000     -10.230358      -278.3822
   6   1.0000     -10.226208      -278.2693
   7   1.0000     -10.226158      -278.2679
   8   1.0000     -10.226059      -278.2652
   9   1.0000     -10.225141      -278.2402
  10   1.0000     -10.222265      -278.1620
  11   1.0000     -10.222148      -278.1588
  12   1.0000     -10.218701      -278.0650
  13   1.0000     -10.217845      -278.0417
  14   1.0000     -10.203283      -277.6454
  15   1.0000     -10.194456      -277.4053
  16   1.0000     -10.192430      -277.3501
  17   1.0000     -10.190802      -277.3058
  18   1.0000     -10.189111      -277.2598
  19   1.0000     -10.185917      -277.1729
  20   1.0000     -10.185206      -277.1535
  21   1.0000     -10.183937      -277.1190
  22   1.0000     -10.178649      -276.9751
  23   1.0000     -10.176115      -276.9062
  24   1.0000      -0.893859       -24.3231
  25   1.0000      -0.883882       -24.0517
  26   1.0000      -0.833620       -22.6840
  27   1.0000      -0.815252       -22.1841
  28   1.0000      -0.800958       -21.7952
  29   1.0000      -0.797409       -21.6986
  30   1.0000      -0.776435       -21.1279
  31   1.0000      -0.771116       -20.9831
  32   1.0000      -0.754794       -20.5390
  33   1.0000      -0.738267       -20.0893
  34   1.0000      -0.719676       -19.5834
  35   1.0000      -0.706511       -19.2251
  36   1.0000      -0.662674       -18.0323
  37   1.0000      -0.658882       -17.9291
  38   1.0000      -0.634123       -17.2554
  39   1.0000      -0.629697       -17.1349
  40   1.0000      -0.629027       -17.1167
  41   1.0000      -0.602265       -16.3885
  42   1.0000      -0.585570       -15.9342
  43   1.0000      -0.572910       -15.5897
  44   1.0000      -0.559687       -15.2299
  45   1.0000      -0.526261       -14.3203
  46   1.0000      -0.523449       -14.2438
  47   1.0000      -0.500140       -13.6095
  48   1.0000      -0.493259       -13.4223
  49   1.0000      -0.481053       -13.0901
  50   1.0000      -0.477045       -12.9811
  51   1.0000      -0.475601       -12.9418
  52   1.0000      -0.455859       -12.4046
  53   1.0000      -0.446973       -12.1628
  54   1.0000      -0.444688       -12.1006
  55   1.0000      -0.435473       -11.8498
  56   1.0000      -0.434836       -11.8325
  57   1.0000      -0.429549       -11.6886
  58   1.0000      -0.424425       -11.5492
  59   1.0000      -0.418100       -11.3771
  60   1.0000      -0.410083       -11.1589
  61   1.0000      -0.404607       -11.0099
  62   1.0000      -0.391989       -10.6666
  63   1.0000      -0.382869       -10.4184
  64   1.0000      -0.380947       -10.3661
  65   1.0000      -0.374141       -10.1809
  66   1.0000      -0.371283       -10.1031
  67   1.0000      -0.367783       -10.0079
  68   1.0000      -0.367261        -9.9937
  69   1.0000      -0.354786        -9.6542
  70   1.0000      -0.345340        -9.3972
  71   1.0000      -0.340623        -9.2688
  72   1.0000      -0.335799        -9.1375
  73   1.0000      -0.332210        -9.0399
  74   1.0000      -0.330763        -9.0005
  75   1.0000      -0.329495        -8.9660
  76   1.0000      -0.326233        -8.8772
  77   1.0000      -0.312717        -8.5095
  78   1.0000      -0.293568        -7.9884
  79   1.0000      -0.279018        -7.5925
  80   1.0000      -0.267327        -7.2743
  81   1.0000      -0.264333        -7.1929
  82   1.0000      -0.250067        -6.8047
  83   1.0000      -0.246177        -6.6988
  84   1.0000      -0.221083        -6.0160
  85   0.0000      -0.083430        -2.2703
  86   0.0000      -0.033493        -0.9114
  87   0.0000      -0.032903        -0.8953
  88   0.0000      -0.022399        -0.6095
  89   0.0000       0.001063         0.0289

                 SPIN DOWN ORBITALS
  NO   OCC          E(Eh)            E(eV)
   0   1.0000     -10.252078      -278.9732
   1   1.0000     -10.248215      -278.8681
   2   1.0000     -10.242370      -278.7091
   3   1.0000     -10.231354      -278.4093
   4   1.0000     -10.231321      -278.4084
   5   1.0000     -10.230924      -278.3976
   6   1.0000     -10.227046      -278.2921
   7   1.0000     -10.225612      -278.2531
   8   1.0000     -10.225464      -278.2490
   9   1.0000     -10.224505      -278.2229
  10   1.0000     -10.222553      -278.1698
  11   1.0000     -10.222425      -278.1663
  12   1.0000     -10.218978      -278.0725
  13   1.0000     -10.217090      -278.0212
  14   1.0000     -10.203234      -277.6441
  15   1.0000     -10.194589      -277.4089
  16   1.0000     -10.192434      -277.3502
  17   1.0000     -10.190802      -277.3058
  18   1.0000     -10.189114      -277.2599
  19   1.0000     -10.185207      -277.1536
  20   1.0000     -10.182232      -277.0726
  21   1.0000     -10.179639      -277.0021
  22   1.0000     -10.178649      -276.9751
  23   1.0000     -10.176115      -276.9062
  24   1.0000      -0.890842       -24.2411
  25   1.0000      -0.883032       -24.0285
  26   1.0000      -0.831083       -22.6149
  27   1.0000      -0.813664       -22.1409
  28   1.0000      -0.800472       -21.7820
  29   1.0000      -0.794657       -21.6237
  30   1.0000      -0.775988       -21.1157
  31   1.0000      -0.770575       -20.9684
  32   1.0000      -0.751296       -20.4438
  33   1.0000      -0.737427       -20.0664
  34   1.0000      -0.711098       -19.3500
  35   1.0000      -0.700106       -19.0508
  36   1.0000      -0.661858       -18.0101
  37   1.0000      -0.653852       -17.7922
  38   1.0000      -0.631222       -17.1764
  39   1.0000      -0.629138       -17.1197
  40   1.0000      -0.628586       -17.1047
  41   1.0000      -0.600960       -16.3530
  42   1.0000      -0.585439       -15.9306
  43   1.0000      -0.572397       -15.5757
  44   1.0000      -0.558994       -15.2110
  45   1.0000      -0.524535       -14.2733
  46   1.0000      -0.521395       -14.1879
  47   1.0000      -0.499217       -13.5844
  48   1.0000      -0.492180       -13.3929
  49   1.0000      -0.480947       -13.0872
  50   1.0000      -0.476691       -12.9714
  51   1.0000      -0.474939       -12.9238
  52   1.0000      -0.455494       -12.3946
  53   1.0000      -0.446199       -12.1417
  54   1.0000      -0.444532       -12.0963
  55   1.0000      -0.434164       -11.8142
  56   1.0000      -0.433327       -11.7914
  57   1.0000      -0.429402       -11.6846
  58   1.0000      -0.423117       -11.5136
  59   1.0000      -0.417921       -11.3722
  60   1.0000      -0.409447       -11.1416
  61   1.0000      -0.401538       -10.9264
  62   1.0000      -0.387470       -10.5436
  63   1.0000      -0.382249       -10.4015
  64   1.0000      -0.380473       -10.3532
  65   1.0000      -0.374064       -10.1788
  66   1.0000      -0.371009       -10.0957
  67   1.0000      -0.366695        -9.9783
  68   1.0000      -0.365269        -9.9395
  69   1.0000      -0.352447        -9.5906
  70   1.0000      -0.340517        -9.2659
  71   1.0000      -0.337961        -9.1964
  72   1.0000      -0.335773        -9.1368
  73   1.0000      -0.332125        -9.0376
  74   1.0000      -0.330584        -8.9956
  75   1.0000      -0.329127        -8.9560
  76   1.0000      -0.325815        -8.8659
  77   1.0000      -0.298871        -8.1327
  78   1.0000      -0.292644        -7.9632
  79   1.0000      -0.277514        -7.5515
  80   1.0000      -0.262788        -7.1508
  81   1.0000      -0.246736        -6.7140
  82   1.0000      -0.240693        -6.5496
  83   1.0000      -0.239559        -6.5187
  84   0.0000      -0.156393        -4.2557
  85   0.0000      -0.072418        -1.9706
  86   0.0000      -0.032042        -0.8719
  87   0.0000      -0.022473        -0.6115
  88   0.0000      -0.015714        -0.4276

MULLIKEN ATOMIC CHARGES AND SPIN POPULATIONS
--------------------------------------------
   0 C :   -0.509062    0.311955
   1 C :   -0.134515    0.285392
   2 C :   -0.383732   -0.068807
   3 C :    0.407200   -0.018529
   4 C :    0.329306    0.140443
   5 C :   -0.415641   -0.081149
   6 C :    0.552163    0.200214
   7 C :    0.263945   -0.065701
   8 C :   -0.365271    0.107087
   9 H :    0.137228    0.003166
  10 H :    0.150671   -0.005929
  11 C :   -0.370467   -0.016300
  12 H :    0.164765    0.007113
  13 H :    0.164673    0.007115
  14 C :   -0.264283    0.000473
  15 H :    0.136969   -0.000033
  16 H :    0.136935   -0.000032
  17 C :   -0.252400    0.000058
  18 H :    0.146010   -0.000010
  19 H :    0.146050   -0.000010
  20 C :   -0.508930   -0.000035
  21 H :    0.156451    0.000016
  22 H :    0.156443    0.000016
  23 C :   -0.354688    0.003575
  24 H :    0.151989   -0.001784
  25 H :    0.151879   -0.001784
  26 C :   -0.263626   -0.000434
  27 H :    0.143014    0.000120
  28 H :    0.142995    0.000120
  29 C :   -0.255093   -0.000071
  30 H :    0.140815    0.000014
  31 H :    0.140794    0.000014
  32 C :   -0.505777    0.000011
  33 H :    0.159962   -0.000006
  34 H :    0.159981   -0.000006
  35 C :   -0.274021    0.140237
  36 H :    0.146264   -0.000004
  37 H :    0.143220   -0.000003
  38 C :    0.587759   -0.024961
  39 C :   -0.270825    0.039083
  40 C :   -0.096472   -0.020858
  41 C :   -0.109733    0.046703
  42 C :   -0.099408   -0.020839
  43 C :   -0.265629    0.039134
  44 H :    0.112325   -0.002582
  45 H :    0.111486    0.001001
  46 H :    0.123676   -0.002097
  47 H :    0.123095   -0.002094
  48 H :    0.111507    0.000998
Sum of atomic charges         :   -0.0000000

LOEWDIN ATOMIC CHARGES AND SPIN POPULATIONS
-------------------------------------------
   0 C :   -0.156747    0.325593
   1 C :   -0.142557    0.248046
   2 C :   -0.023154   -0.031133
   3 C :   -0.051091    0.008172
   4 C :   -0.014800    0.110321
   5 C :   -0.006622   -0.047047
   6 C :   -0.032673    0.152902
   7 C :   -0.042626   -0.036953
   8 C :    0.019534    0.091172
   9 H :    0.065258   -0.000413
  10 H :    0.070031   -0.000052
  11 C :   -0.043527   -0.000530
  12 H :    0.069544    0.005148
  13 H :    0.069503    0.005146
  14 C :   -0.085260   -0.000166
  15 H :    0.045988   -0.000067
  16 H :    0.045983   -0.000067
  17 C :   -0.092523   -0.000035
  18 H :    0.045377    0.000016
  19 H :    0.045385    0.000016
  20 C :   -0.084659   -0.000027
  21 H :    0.035940    0.000010
  22 H :    0.035942    0.000010
  23 C :   -0.047405   -0.000079
  24 H :    0.062162   -0.001492
  25 H :    0.062169   -0.001492
  26 C :   -0.081499   -0.000113
  27 H :    0.048908    0.000103
  28 H :    0.048898    0.000104
  29 C :   -0.096014   -0.000038
  30 H :    0.043191   -0.000012
  31 H :    0.043191   -0.000012
  32 C :   -0.082272    0.000001
  33 H :    0.037598   -0.000004
  34 H :    0.037599   -0.000004
  35 C :   -0.004337    0.111104
  36 H :    0.035096   -0.000005
  37 H :    0.034434   -0.000002
  38 C :   -0.076175   -0.012985
  39 C :   -0.006758    0.031822
  40 C :   -0.039420   -0.012683
  41 C :   -0.030199    0.036561
  42 C :   -0.039810   -0.012680
  43 C :   -0.007167    0.031766
  44 H :    0.054369    0.000158
  45 H :    0.055201   -0.000071
  46 H :    0.060506    0.000031
  47 H :    0.060200    0.000031
  48 H :    0.055289   -0.000071

  Mayer bond orders larger than 0.100000
B(  0-C ,  1-C ) :   2.0311 B(  1-C ,  3-C ) :   1.0937 B(  1-C ,  8-C ) :   0.1162
B(  2-C ,  6-C ) :   0.8569 B(  2-C ,  7-C ) :   0.1005 B(  2-C , 35-C ) :   2.4325
B(  3-C ,  4-C ) :   1.2588 B(  3-C ,  5-C ) :   0.1057 B(  3-C ,  8-C ) :   1.3324
B(  4-C ,  5-C ) :   1.4957 B(  4-C ,  6-C ) :   0.1109 B(  4-C , 11-C ) :   0.9645
B(  5-C ,  6-C ) :   1.3842 B(  5-C ,  9-H ) :   0.9658 B(  6-C ,  7-C ) :   1.3150
B(  6-C ,  8-C ) :   0.1433 B(  6-C , 35-C ) :   0.1225 B(  7-C ,  8-C ) :   1.5117
B(  7-C , 23-C ) :   0.9680 B(  8-C , 10-H ) :   0.9614 B( 11-C , 12-H ) :   0.9513
B( 11-C , 13-H ) :   0.9512 B( 11-C , 14-C ) :   1.0160 B( 14-C , 15-H ) :   0.9607
B( 14-C , 16-H ) :   0.9607 B( 14-C , 17-C ) :   0.9910 B( 17-C , 18-H ) :   0.9695
B( 17-C , 19-H ) :   0.9695 B( 17-C , 20-C ) :   0.9536 B( 20-C , 21-H ) :   0.9731
B( 20-C , 22-H ) :   0.9731 B( 20-C , 36-H ) :   0.9670 B( 23-C , 24-H ) :   0.9548
B( 23-C , 25-H ) :   0.9550 B( 23-C , 26-C ) :   1.0253 B( 26-C , 27-H ) :   0.9596
B( 26-C , 28-H ) :   0.9597 B( 26-C , 29-C ) :   0.9885 B( 29-C , 30-H ) :   0.9711
B( 29-C , 31-H ) :   0.9710 B( 29-C , 32-C ) :   0.9573 B( 32-C , 33-H ) :   0.9721
B( 32-C , 34-H ) :   0.9721 B( 32-C , 37-H ) :   0.9665 B( 35-C , 38-C ) :   1.0250
B( 38-C , 39-C ) :   1.3797 B( 38-C , 43-C ) :   1.3753 B( 39-C , 40-C ) :   1.4837
B( 39-C , 41-C ) :   0.1008 B( 39-C , 46-H ) :   0.9795 B( 40-C , 41-C ) :   1.4500
B( 40-C , 48-H ) :   0.9724 B( 41-C , 42-C ) :   1.4525 B( 41-C , 43-C ) :   0.1021
B( 41-C , 44-H ) :   0.9627 B( 42-C , 43-C ) :   1.4837 B( 42-C , 45-H ) :   0.9733
B( 43-C , 47-H ) :   0.9776

FINAL SINGLE POINT ENERGY      -928.918713372773

DIPOLE MOMENT
-------------
                                X             Y             Z
Electronic contribution:      9.15072      -0.22425       0.00178
Nuclear contribution   :     -5.17354       0.11309       0.00539
                        -----------------------------------------
Total Dipole Moment    :      3.97719      -0.11116       0.00717
                        -----------------------------------------
Magnitude (a.u.)       :      3.97875
Magnitude (Debye)      :     10.11317

Rotational constants in cm-1:     0.006500     0.004325     0.002607
Rotational constants in MHz :   194.876145   129.670307    78.163739

CHEMICAL SHIELDING SUMMARY (ppm)  --  Orbital contribution
----------------------------------------------------------

  Nucleus  Element    Isotropic     Anisotropy
  -------  -------  ------------   ------------
      9       H           24.128         14.007
     10       H           24.988          9.954
     12       H           28.959          6.968
     13       H           28.956          6.935
     15       H           30.042          4.976
     16       H           30.041          4.976
     18       H           30.098          7.099
     19       H           30.098          7.107
     21       H           30.720          7.777
     22       H           30.720          7.776
     24       H           28.693          6.346
     25       H           28.692          6.350
     27       H           29.948          5.348
     28       H           29.948          5.345
     30       H           30.052          6.180
     31       H           30.052          6.181
     33       H           30.651          8.341
     34       H           30.651          8.343
     36       H           30.435         10.296
     37       H           30.442         10.203
     44       H           24.100          4.773
     45       H           24.170          5.489
     46       H           23.876          7.666
     47       H           23.857          7.772
     48       H           24.154          5.209

                             ****ORCA TERMINATED NORMALLY****
TOTAL RUN TIME: 0 days 1 hours 30 minutes 36 seconds 982 msec
