                         Program Version 5.0.4 -  RELEASE  -
|  1> ! B3LYP cc-pVDZ OPT
|  2> %pal nprocs 16 end
|  3> *XYZFile 0 2 model.xyz
|  4>
|  5>                          ****END OF INPUT****
 Total Charge           Charge          ....    0
 Multiplicity           Mult            ....    2
 Number of Electrons    NEL             ....  169
FINAL SINGLE POINT ENERGY      -928.844856816981
FINAL SINGLE POINT ENERGY      -928.844859480554
                    ***********************HURRAY********************

CARTESIAN COORDINATES (ANGSTROEM)
---------------------------------
  C     -4.099903    0.083492   -0.018353
  C     -2.815946    0.043661   -0.012330
  C      2.806008   -0.004269   -0.008539
  C     -1.423131    0.006681   -0.011521
  C     -0.708303   -1.246812   -0.013959
  C      0.675892   -1.194656   -0.012684
  C      1.390969    0.032616   -0.009322
  C      0.692187    1.284040   -0.006826
  C     -0.689714    1.234894   -0.008082
  H      1.259776   -2.114722   -0.014385
  H     -1.277365    2.152363   -0.006417
  C     -1.482678   -2.545270   -0.017742
  H     -2.162956   -2.531884   -0.888087
  H     -2.164001   -2.536305    0.851848
  C     -0.664773   -3.838900   -0.020463
  H     -0.001060   -3.863836   -0.904705
  H     -0.002550   -3.868472    0.864757
  C     -1.549765   -5.091581   -0.024486
  H     -2.216738   -5.067647    0.856694
  H     -2.214979   -5.063238   -0.906864
  C     -0.747242   -6.394947   -0.026958
  H     -0.098785   -6.468624    0.863263
  H     -0.096713   -6.463963   -0.916039
  C      1.475610    2.580851   -0.003105
  H      2.150780    2.571663    0.872485
  H      2.151902    2.575969   -0.877872
  C      0.660276    3.876516   -0.000466
  H     -0.001813    3.904739   -0.885019
  H     -0.003430    3.900164    0.883007
  C      1.545553    5.128838    0.003581
  H      2.210398    5.101571    0.886923
  H      2.212314    5.105900   -0.878438
  C      0.742544    6.432044    0.005924
  H      0.091762    6.499753    0.894507
  H      0.094086    6.504395   -0.883993
  C      4.030665   -0.051608   -0.009917
  H     -1.409442   -7.275742   -0.030044
  H      1.404248    7.313240    0.009096
  C      5.453353   -0.107226   -0.009647
  C      6.121835   -1.352501   -0.012193
  C      7.514506   -1.401458   -0.011853
  C      8.262259   -0.217737   -0.009063
  C      7.609924    1.021237   -0.006590
  C      6.217754    1.081653   -0.006879
  H      9.353772   -0.260949   -0.008833
  H      8.191473    1.945911   -0.004438
  H      5.533939   -2.272105   -0.014369
  H      5.703998    2.044629   -0.004992
  H      8.021809   -2.368853   -0.013791

 Multiplicity           Mult            ....    2
 Number of Electrons    NEL             ....  169
 Basis Dimension        Dim             ....  461

ORBITAL ENERGIES
----------------
                 SPIN UP ORBITALS
  NO   OCC          E(Eh)            E(eV)
   0   1.0000     -10.243930      -278.7515
   1   1.0000     -10.235757      -278.5291
   2   1.0000     -10.229518      -278.3593
   3   1.0000     -10.222990      -278.1817
   4   1.0000     -10.219878      -278.0970
   5   1.0000     -10.219367      -278.0831
   6   1.0000     -10.217100      -278.0214
   7   1.0000     -10.216953      -278.0174
   8   1.0000     -10.215127      -277.9677
   9   1.0000     -10.212609      -277.8992
  10   1.0000     -10.212523      -277.8969
  11   1.0000     -10.212493      -277.8961
  12   1.0000     -10.210882      -277.8522
  13   1.0000     -10.209946      -277.8267
  14   1.0000     -10.201244      -277.5900
  15   1.0000     -10.192735      -277.3584
  16   1.0000     -10.191168      -277.3158
  17   1.0000     -10.189623      -277.2737
  18   1.0000     -10.187874      -277.2261
  19   1.0000     -10.184334      -277.1298
  20   1.0000     -10.180734      -277.0319
  21   1.0000     -10.178294      -276.9655
  22   1.0000     -10.170881      -276.7637
  23   1.0000     -10.168867      -276.7089
  24   1.0000      -0.892953       -24.2985
  25   1.0000      -0.882810       -24.0225
  26   1.0000      -0.833108       -22.6700
  27   1.0000      -0.814695       -22.1690
  28   1.0000      -0.802339       -21.8327
  29   1.0000      -0.796073       -21.6623
  30   1.0000      -0.777318       -21.1519
  31   1.0000      -0.769775       -20.9467
  32   1.0000      -0.753149       -20.4942
  33   1.0000      -0.738893       -20.1063
  34   1.0000      -0.717981       -19.5372
  35   1.0000      -0.706753       -19.2317
  36   1.0000      -0.663041       -18.0423
  37   1.0000      -0.657170       -17.8825
  38   1.0000      -0.632566       -17.2130
  39   1.0000      -0.629921       -17.1410
  40   1.0000      -0.627391       -17.0722
  41   1.0000      -0.601793       -16.3756
  42   1.0000      -0.586005       -15.9460
  43   1.0000      -0.572889       -15.5891
  44   1.0000      -0.557500       -15.1704
  45   1.0000      -0.524895       -14.2831
  46   1.0000      -0.522232       -14.2106
  47   1.0000      -0.498041       -13.5524
  48   1.0000      -0.492793       -13.4096
  49   1.0000      -0.480680       -13.0800
  50   1.0000      -0.476554       -12.9677
  51   1.0000      -0.475451       -12.9377
  52   1.0000      -0.453689       -12.3455
  53   1.0000      -0.445472       -12.1219
  54   1.0000      -0.442471       -12.0402
  55   1.0000      -0.435291       -11.8449
  56   1.0000      -0.434862       -11.8332
  57   1.0000      -0.429952       -11.6996
  58   1.0000      -0.423937       -11.5359
  59   1.0000      -0.418343       -11.3837
  60   1.0000      -0.409793       -11.1510
  61   1.0000      -0.403743       -10.9864
  62   1.0000      -0.391179       -10.6445
  63   1.0000      -0.382282       -10.4024
  64   1.0000      -0.378824       -10.3083
  65   1.0000      -0.374321       -10.1858
  66   1.0000      -0.369235       -10.0474
  67   1.0000      -0.367096        -9.9892
  68   1.0000      -0.366852        -9.9826
  69   1.0000      -0.353932        -9.6310
  70   1.0000      -0.344102        -9.3635
  71   1.0000      -0.341278        -9.2866
  72   1.0000      -0.336172        -9.1477
  73   1.0000      -0.332613        -9.0509
  74   1.0000      -0.330822        -9.0021
  75   1.0000      -0.330217        -8.9857
  76   1.0000      -0.326484        -8.8841
  77   1.0000      -0.310992        -8.4625
  78   1.0000      -0.291544        -7.9333
  79   1.0000      -0.277550        -7.5525
  80   1.0000      -0.265908        -7.2357
  81   1.0000      -0.262491        -7.1427
  82   1.0000      -0.243660        -6.6303
  83   1.0000      -0.242743        -6.6054
  84   1.0000      -0.218488        -5.9454
  85   0.0000      -0.080227        -2.1831
  86   0.0000      -0.028695        -0.7808
  87   0.0000      -0.028628        -0.7790
  88   0.0000      -0.019197        -0.5224
  89   0.0000       0.023090         0.6283

                 SPIN DOWN ORBITALS
  NO   OCC          E(Eh)            E(eV)
   0   1.0000     -10.240855      -278.6678
   1   1.0000     -10.236218      -278.5416
   2   1.0000     -10.229955      -278.3712
   3   1.0000     -10.220914      -278.1252
   4   1.0000     -10.220890      -278.1245
   5   1.0000     -10.217358      -278.0285
   6   1.0000     -10.216511      -278.0054
   7   1.0000     -10.216364      -278.0014
   8   1.0000     -10.214500      -277.9507
   9   1.0000     -10.213429      -277.9215
  10   1.0000     -10.212893      -277.9069
  11   1.0000     -10.212768      -277.9036
  12   1.0000     -10.211095      -277.8580
  13   1.0000     -10.209177      -277.8058
  14   1.0000     -10.201191      -277.5885
  15   1.0000     -10.192875      -277.3622
  16   1.0000     -10.191172      -277.3159
  17   1.0000     -10.189624      -277.2738
  18   1.0000     -10.187877      -277.2262
  19   1.0000     -10.184335      -277.1298
  20   1.0000     -10.180734      -277.0319
  21   1.0000     -10.178295      -276.9655
  22   1.0000     -10.166939      -276.6565
  23   1.0000     -10.164487      -276.5898
  24   1.0000      -0.890009       -24.2184
  25   1.0000      -0.881983       -24.0000
  26   1.0000      -0.830845       -22.6084
  27   1.0000      -0.812984       -22.1224
  28   1.0000      -0.801841       -21.8192
  29   1.0000      -0.793383       -21.5891
  30   1.0000      -0.776818       -21.1383
  31   1.0000      -0.769243       -20.9322
  32   1.0000      -0.749844       -20.4043
  33   1.0000      -0.737936       -20.0803
  34   1.0000      -0.711207       -19.3529
  35   1.0000      -0.698404       -19.0045
  36   1.0000      -0.662306       -18.0223
  37   1.0000      -0.652053       -17.7433
  38   1.0000      -0.629617       -17.1327
  39   1.0000      -0.629342       -17.1253
  40   1.0000      -0.626978       -17.0609
  41   1.0000      -0.600489       -16.3401
  42   1.0000      -0.585875       -15.9425
  43   1.0000      -0.572338       -15.5741
  44   1.0000      -0.556807       -15.1515
  45   1.0000      -0.523408       -14.2427
  46   1.0000      -0.519959       -14.1488
  47   1.0000      -0.497139       -13.5278
  48   1.0000      -0.491764       -13.3816
  49   1.0000      -0.480596       -13.0777
  50   1.0000      -0.476213       -12.9584
  51   1.0000      -0.474818       -12.9204
  52   1.0000      -0.453343       -12.3361
  53   1.0000      -0.444766       -12.1027
  54   1.0000      -0.442323       -12.0362
  55   1.0000      -0.434600       -11.8261
  56   1.0000      -0.432791       -11.7768
  57   1.0000      -0.429810       -11.6957
  58   1.0000      -0.422672       -11.5015
  59   1.0000      -0.418159       -11.3787
  60   1.0000      -0.409161       -11.1338
  61   1.0000      -0.400763       -10.9053
  62   1.0000      -0.386779       -10.5248
  63   1.0000      -0.381694       -10.3864
  64   1.0000      -0.378377       -10.2962
  65   1.0000      -0.374241       -10.1836
  66   1.0000      -0.368919       -10.0388
  67   1.0000      -0.366330        -9.9683
  68   1.0000      -0.364761        -9.9256
  69   1.0000      -0.351672        -9.5695
  70   1.0000      -0.341172        -9.2838
  71   1.0000      -0.336809        -9.1650
  72   1.0000      -0.336153        -9.1472
  73   1.0000      -0.332525        -9.0485
  74   1.0000      -0.330611        -8.9964
  75   1.0000      -0.329842        -8.9755
  76   1.0000      -0.326002        -8.8710
  77   1.0000      -0.297253        -8.0887
  78   1.0000      -0.290657        -7.9092
  79   1.0000      -0.276070        -7.5122
  80   1.0000      -0.261558        -7.1174
  81   1.0000      -0.244670        -6.6578
  82   1.0000      -0.236288        -6.4297
  83   1.0000      -0.234317        -6.3761
  84   0.0000      -0.153148        -4.1674
  85   0.0000      -0.069225        -1.8837
  86   0.0000      -0.027161        -0.7391
  87   0.0000      -0.018006        -0.4900
  88   0.0000      -0.012630        -0.3437

MULLIKEN ATOMIC CHARGES AND SPIN POPULATIONS
--------------------------------------------
   0 C :   -0.275065    0.310529
   1 C :   -0.101090    0.289156
   2 C :    0.291671   -0.075482
   3 C :    0.079992   -0.028524
   4 C :   -0.056941    0.143573
   5 C :    0.016689   -0.085385
   6 C :   -0.167839    0.208075
   7 C :   -0.063950   -0.074318
   8 C :    0.048533    0.119827
   9 H :   -0.046925    0.002728
  10 H :   -0.033280   -0.005598
  11 C :    0.058958   -0.013012
  12 H :    0.044022    0.007117
  13 H :    0.043936    0.007136
  14 C :   -0.040113    0.000353
  15 H :    0.014383   -0.000070
  16 H :    0.014358   -0.000070
  17 C :   -0.023850    0.000032
  18 H :    0.011079   -0.000010
  19 H :    0.011108   -0.000010
  20 C :    0.002985   -0.000049
  21 H :    0.015821    0.000013
  22 H :    0.015817    0.000013
  23 C :    0.038442    0.004862
  24 H :    0.033517   -0.002018
  25 H :    0.033537   -0.002014
  26 C :   -0.035907   -0.000370
  27 H :    0.021682    0.000026
  28 H :    0.021662    0.000026
  29 C :   -0.026892   -0.000042
  30 H :    0.005378    0.000009
  31 H :    0.005379    0.000010
  32 C :    0.003987    0.000016
  33 H :    0.020427   -0.000005
  34 H :    0.020446   -0.000005
  35 C :    0.162203    0.143274
  36 H :    0.015632   -0.000004
  37 H :    0.013813   -0.000003
  38 C :   -0.265846   -0.028997
  39 C :    0.037446    0.039697
  40 C :    0.042530   -0.021053
  41 C :    0.039590    0.045863
  42 C :    0.042378   -0.021045
  43 C :    0.034557    0.039664
  44 H :   -0.018784   -0.002046
  45 H :   -0.020087    0.000810
  46 H :   -0.032942   -0.001743
  47 H :   -0.032463   -0.001744
  48 H :   -0.019987    0.000811
Sum of atomic charges         :   -0.0000000

LOEWDIN ATOMIC CHARGES AND SPIN POPULATIONS
-------------------------------------------
   0 C :   -0.159580    0.323641
   1 C :   -0.110196    0.258304
   2 C :   -0.011853   -0.032050
   3 C :   -0.036846    0.001704
   4 C :    0.021055    0.111159
   5 C :   -0.004870   -0.047862
   6 C :   -0.017139    0.152567
   7 C :   -0.006435   -0.039379
   8 C :    0.020948    0.095259
   9 H :    0.032069   -0.000425
  10 H :    0.037692   -0.000239
  11 C :   -0.031051    0.000003
  12 H :    0.047475    0.005188
  13 H :    0.047446    0.005201
  14 C :   -0.044640   -0.000167
  15 H :    0.023275   -0.000080
  16 H :    0.023267   -0.000080
  17 C :   -0.045584   -0.000019
  18 H :    0.026542    0.000026
  19 H :    0.026553    0.000026
  20 C :   -0.067444   -0.000028
  21 H :    0.024646    0.000009
  22 H :    0.024648    0.000009
  23 C :   -0.034423   -0.000213
  24 H :    0.039423   -0.001573
  25 H :    0.039433   -0.001570
  26 C :   -0.042415   -0.000067
  27 H :    0.026926    0.000056
  28 H :    0.026915    0.000056
  29 C :   -0.047169   -0.000033
  30 H :    0.023715   -0.000011
  31 H :    0.023714   -0.000011
  32 C :   -0.066340    0.000004
  33 H :    0.026760   -0.000003
  34 H :    0.026764   -0.000003
  35 C :    0.005873    0.110411
  36 H :    0.028882   -0.000005
  37 H :    0.028224   -0.000002
  38 C :   -0.056138   -0.013050
  39 C :    0.007461    0.031227
  40 C :   -0.019423   -0.012446
  41 C :   -0.008559    0.035752
  42 C :   -0.019618   -0.012441
  43 C :    0.006471    0.031185
  44 H :    0.032038    0.000095
  45 H :    0.032693   -0.000052
  46 H :    0.033104   -0.000010
  47 H :    0.032928   -0.000010
  48 H :    0.032783   -0.000052

  Mayer bond orders larger than 0.100000
B(  0-C ,  1-C ) :   2.8978 B(  1-C ,  3-C ) :   1.0562 B(  2-C ,  6-C ) :   0.9231
B(  2-C , 35-C ) :   1.6799 B(  2-C , 38-C ) :  -0.1839 B(  3-C ,  4-C ) :   1.2772
B(  3-C ,  8-C ) :   1.2761 B(  4-C ,  5-C ) :   1.4842 B(  4-C , 11-C ) :   1.1013
B(  5-C ,  6-C ) :   1.3300 B(  5-C ,  9-H ) :   0.9240 B(  6-C ,  7-C ) :   1.3305
B(  7-C ,  8-C ) :   1.4938 B(  7-C , 23-C ) :   1.0937 B(  8-C , 10-H ) :   0.9248
B( 11-C , 12-H ) :   0.8926 B( 11-C , 13-H ) :   0.8925 B( 11-C , 14-C ) :   1.1009
B( 14-C , 15-H ) :   0.9285 B( 14-C , 16-H ) :   0.9285 B( 14-C , 17-C ) :   1.0753
B( 17-C , 18-H ) :   0.9414 B( 17-C , 19-H ) :   0.9414 B( 17-C , 20-C ) :   1.1056
B( 20-C , 21-H ) :   0.9661 B( 20-C , 22-H ) :   0.9661 B( 20-C , 36-H ) :   0.9619
B( 23-C , 24-H ) :   0.8967 B( 23-C , 25-H ) :   0.8967 B( 23-C , 26-C ) :   1.1045
B( 26-C , 27-H ) :   0.9299 B( 26-C , 28-H ) :   0.9299 B( 26-C , 29-C ) :   1.0740
B( 29-C , 30-H ) :   0.9411 B( 29-C , 31-H ) :   0.9411 B( 29-C , 32-C ) :   1.1066
B( 32-C , 33-H ) :   0.9662 B( 32-C , 34-H ) :   0.9662 B( 32-C , 37-H ) :   0.9613
B( 35-C , 38-C ) :   0.9517 B( 38-C , 39-C ) :   1.4288 B( 38-C , 43-C ) :   1.4270
B( 39-C , 40-C ) :   1.4745 B( 39-C , 46-H ) :   0.9418 B( 40-C , 41-C ) :   1.4407
B( 40-C , 48-H ) :   0.9388 B( 41-C , 42-C ) :   1.4401 B( 41-C , 44-H ) :   0.9441
B( 42-C , 43-C ) :   1.4746 B( 42-C , 45-H ) :   0.9388 B( 43-C , 47-H ) :   0.9421

FINAL SINGLE POINT ENERGY      -928.844859561540

DIPOLE MOMENT
-------------
                                X             Y             Z
Electronic contribution:      8.91335      -0.21335       0.00216
Nuclear contribution   :     -5.17354       0.11309       0.00539
                        -----------------------------------------
Total Dipole Moment    :      3.73981      -0.10026       0.00754
                        -----------------------------------------
Magnitude (a.u.)       :      3.74116
Magnitude (Debye)      :      9.50928

Rotational constants in cm-1:     0.006500     0.004325     0.002607
Rotational constants in MHz :   194.876145   129.670307    78.163739

                             ****ORCA TERMINATED NORMALLY****
TOTAL RUN TIME: 0 days 0 hours 6 minutes 12 seconds 760 msec
