                         Program Version 5.0.4 -  RELEASE  -
|  1> ! B3LYP EPR-II OPT
|  2> %pal nprocs 16 end
|  3> *XYZFile 0 2 model.xyz
|  4>
|  5>                          ****END OF INPUT****
 Total Charge           Charge          ....    0
 Multiplicity           Mult            ....    2
 Number of Electrons    NEL             ....  169
FINAL SINGLE POINT ENERGY      -928.919402656370
FINAL SINGLE POINT ENERGY      -928.920470104157
FINAL SINGLE POINT ENERGY      -928.920521011770
FINAL SINGLE POINT ENERGY      -928.920534618795
FINAL SINGLE POINT ENERGY      -928.920537624189
FINAL SINGLE POINT ENERGY      -928.920538933324
FINAL SINGLE POINT ENERGY      -928.920540310355
                    ***********************HURRAY********************

CARTESIAN COORDINATES (ANGSTROEM)
---------------------------------
  C     -4.113085    0.073637   -0.018204
  C     -2.824890    0.051463   -0.012975
  C      2.807106   -0.006085   -0.009360
  C     -1.427304    0.011936   -0.012516
  C     -0.714994   -1.246467   -0.014833
  C      0.672777   -1.198020   -0.013556
  C      1.389321    0.032206   -0.010227
  C      0.692314    1.288046   -0.007400
  C     -0.692930    1.243500   -0.008663
  H      1.250439   -2.114950   -0.015211
  H     -1.274541    2.157673   -0.006761
  C     -1.494418   -2.547167   -0.018707
  H     -2.164603   -2.536718   -0.887834
  H     -2.167297   -2.540332    0.848356
  C     -0.667445   -3.841890   -0.020097
  H     -0.010652   -3.867183   -0.900371
  H     -0.013781   -3.870976    0.862393
  C     -1.554353   -5.100241   -0.024427
  H     -2.214347   -5.080188    0.852514
  H     -2.210859   -5.076577   -0.903892
  C     -0.740810   -6.405939   -0.025519
  H     -0.099373   -6.471396    0.860733
  H     -0.095182   -6.467269   -0.909017
  C      1.480981    2.586933   -0.003308
  H      2.147219    2.579608    0.870093
  H      2.148475    2.584347   -0.875776
  C      0.657049    3.883874   -0.000385
  H      0.002570    3.912375   -0.881476
  H      0.000517    3.907167    0.879327
  C      1.544186    5.141911    0.004404
  H      2.200662    5.118683    0.884580
  H      2.203073    5.123698   -0.874088
  C      0.730302    6.447485    0.007035
  H      0.084864    6.507040    0.890398
  H      0.087982    6.512581   -0.878209
  C      4.035162   -0.048660   -0.010298
  H     -1.396602   -7.282494   -0.029107
  H      1.385553    7.324507    0.010933
  C      5.461584   -0.108003   -0.009969
  C      6.125738   -1.360410   -0.012186
  C      7.523062   -1.414769   -0.011836
  C      8.278291   -0.229049   -0.009330
  C      7.627542    1.017125   -0.007149
  C      6.230628    1.082692   -0.007467
  H      9.363866   -0.275817   -0.009089
  H      8.209979    1.934333   -0.005222
  H      5.536832   -2.272616   -0.014134
  H      5.722748    2.042341   -0.005815
  H      8.024952   -2.378429   -0.013531

 Multiplicity           Mult            ....    2
 Number of Electrons    NEL             ....  169
 Basis Dimension        Dim             ....  583

ORBITAL ENERGIES
----------------
                 SPIN UP ORBITALS
  NO   OCC          E(Eh)            E(eV)
   0   1.0000     -10.255613      -279.0694
   1   1.0000     -10.248805      -278.8842
   2   1.0000     -10.242903      -278.7236
   3   1.0000     -10.234118      -278.4845
   4   1.0000     -10.233605      -278.4706
   5   1.0000     -10.230765      -278.3933
   6   1.0000     -10.226518      -278.2777
   7   1.0000     -10.226479      -278.2766
   8   1.0000     -10.226326      -278.2725
   9   1.0000     -10.225448      -278.2486
  10   1.0000     -10.222617      -278.1715
  11   1.0000     -10.222503      -278.1684
  12   1.0000     -10.218963      -278.0721
  13   1.0000     -10.217856      -278.0420
  14   1.0000     -10.202160      -277.6149
  15   1.0000     -10.193573      -277.3812
  16   1.0000     -10.191177      -277.3160
  17   1.0000     -10.189376      -277.2670
  18   1.0000     -10.187834      -277.2251
  19   1.0000     -10.187221      -277.2084
  20   1.0000     -10.185052      -277.1494
  21   1.0000     -10.183808      -277.1155
  22   1.0000     -10.176380      -276.9134
  23   1.0000     -10.173840      -276.8443
  24   1.0000      -0.891990       -24.2723
  25   1.0000      -0.881455       -23.9856
  26   1.0000      -0.832077       -22.6420
  27   1.0000      -0.814022       -22.1507
  28   1.0000      -0.799859       -21.7653
  29   1.0000      -0.795998       -21.6602
  30   1.0000      -0.775500       -21.1024
  31   1.0000      -0.770270       -20.9601
  32   1.0000      -0.753669       -20.5084
  33   1.0000      -0.737716       -20.0743
  34   1.0000      -0.719086       -19.5673
  35   1.0000      -0.706229       -19.2175
  36   1.0000      -0.662913       -18.0388
  37   1.0000      -0.658132       -17.9087
  38   1.0000      -0.633639       -17.2422
  39   1.0000      -0.630685       -17.1618
  40   1.0000      -0.629188       -17.1211
  41   1.0000      -0.602911       -16.4060
  42   1.0000      -0.587192       -15.9783
  43   1.0000      -0.574412       -15.6306
  44   1.0000      -0.559183       -15.2161
  45   1.0000      -0.525832       -14.3086
  46   1.0000      -0.522839       -14.2272
  47   1.0000      -0.501427       -13.6445
  48   1.0000      -0.492139       -13.3918
  49   1.0000      -0.481805       -13.1106
  50   1.0000      -0.476461       -12.9652
  51   1.0000      -0.475443       -12.9375
  52   1.0000      -0.456327       -12.4173
  53   1.0000      -0.447935       -12.1889
  54   1.0000      -0.445182       -12.1140
  55   1.0000      -0.435910       -11.8617
  56   1.0000      -0.433408       -11.7936
  57   1.0000      -0.428919       -11.6715
  58   1.0000      -0.425706       -11.5841
  59   1.0000      -0.418038       -11.3754
  60   1.0000      -0.409525       -11.1437
  61   1.0000      -0.403350       -10.9757
  62   1.0000      -0.391815       -10.6618
  63   1.0000      -0.382544       -10.4095
  64   1.0000      -0.381404       -10.3785
  65   1.0000      -0.374066       -10.1789
  66   1.0000      -0.371986       -10.1223
  67   1.0000      -0.369118       -10.0442
  68   1.0000      -0.367184        -9.9916
  69   1.0000      -0.356279        -9.6948
  70   1.0000      -0.345666        -9.4060
  71   1.0000      -0.339471        -9.2375
  72   1.0000      -0.335401        -9.1267
  73   1.0000      -0.332997        -9.0613
  74   1.0000      -0.331785        -9.0283
  75   1.0000      -0.328460        -8.9379
  76   1.0000      -0.328326        -8.9342
  77   1.0000      -0.311910        -8.4875
  78   1.0000      -0.292961        -7.9719
  79   1.0000      -0.278260        -7.5719
  80   1.0000      -0.267244        -7.2721
  81   1.0000      -0.263925        -7.1818
  82   1.0000      -0.250856        -6.8261
  83   1.0000      -0.245912        -6.6916
  84   1.0000      -0.220877        -6.0104
  85   0.0000      -0.083682        -2.2771
  86   0.0000      -0.034465        -0.9378
  87   0.0000      -0.033634        -0.9152
  88   0.0000      -0.023050        -0.6272
  89   0.0000       0.001587         0.0432

                 SPIN DOWN ORBITALS
  NO   OCC          E(Eh)            E(eV)
   0   1.0000     -10.252554      -278.9862
   1   1.0000     -10.249270      -278.8968
   2   1.0000     -10.243214      -278.7320
   3   1.0000     -10.232067      -278.4287
   4   1.0000     -10.231746      -278.4200
   5   1.0000     -10.231603      -278.4161
   6   1.0000     -10.227430      -278.3025
   7   1.0000     -10.225887      -278.2605
   8   1.0000     -10.225734      -278.2564
   9   1.0000     -10.224815      -278.2314
  10   1.0000     -10.222904      -278.1794
  11   1.0000     -10.222780      -278.1760
  12   1.0000     -10.218998      -278.0731
  13   1.0000     -10.217337      -278.0279
  14   1.0000     -10.202111      -277.6135
  15   1.0000     -10.193703      -277.3848
  16   1.0000     -10.191180      -277.3161
  17   1.0000     -10.189376      -277.2670
  18   1.0000     -10.187838      -277.2252
  19   1.0000     -10.183809      -277.1155
  20   1.0000     -10.183524      -277.1078
  21   1.0000     -10.180711      -277.0312
  22   1.0000     -10.176380      -276.9134
  23   1.0000     -10.173841      -276.8443
  24   1.0000      -0.889000       -24.1909
  25   1.0000      -0.880615       -23.9628
  26   1.0000      -0.829588       -22.5742
  27   1.0000      -0.812420       -22.1071
  28   1.0000      -0.799366       -21.7518
  29   1.0000      -0.793259       -21.5857
  30   1.0000      -0.775061       -21.0905
  31   1.0000      -0.769732       -20.9455
  32   1.0000      -0.750193       -20.4138
  33   1.0000      -0.736865       -20.0511
  34   1.0000      -0.710896       -19.3445
  35   1.0000      -0.699324       -19.0296
  36   1.0000      -0.662146       -18.0179
  37   1.0000      -0.653199       -17.7744
  38   1.0000      -0.630701       -17.1623
  39   1.0000      -0.630131       -17.1467
  40   1.0000      -0.628767       -17.1096
  41   1.0000      -0.601608       -16.3706
  42   1.0000      -0.587059       -15.9747
  43   1.0000      -0.573878       -15.6160
  44   1.0000      -0.558492       -15.1973
  45   1.0000      -0.524158       -14.2631
  46   1.0000      -0.520751       -14.1704
  47   1.0000      -0.500502       -13.6194
  48   1.0000      -0.491078       -13.3629
  49   1.0000      -0.481727       -13.1085
  50   1.0000      -0.475822       -12.9478
  51   1.0000      -0.475093       -12.9279
  52   1.0000      -0.455938       -12.4067
  53   1.0000      -0.447102       -12.1663
  54   1.0000      -0.445025       -12.1097
  55   1.0000      -0.434032       -11.8106
  56   1.0000      -0.432758       -11.7759
  57   1.0000      -0.428782       -11.6678
  58   1.0000      -0.424428       -11.5493
  59   1.0000      -0.417877       -11.3710
  60   1.0000      -0.408870       -11.1259
  61   1.0000      -0.400121       -10.8879
  62   1.0000      -0.387396       -10.5416
  63   1.0000      -0.381927       -10.3928
  64   1.0000      -0.380921       -10.3654
  65   1.0000      -0.373986       -10.1767
  66   1.0000      -0.371722       -10.1151
  67   1.0000      -0.367032        -9.9874
  68   1.0000      -0.366619        -9.9762
  69   1.0000      -0.354046        -9.6341
  70   1.0000      -0.339376        -9.2349
  71   1.0000      -0.337920        -9.1953
  72   1.0000      -0.335368        -9.1258
  73   1.0000      -0.332719        -9.0537
  74   1.0000      -0.331706        -9.0262
  75   1.0000      -0.327966        -8.9244
  76   1.0000      -0.327926        -8.9233
  77   1.0000      -0.298030        -8.1098
  78   1.0000      -0.292044        -7.9469
  79   1.0000      -0.276765        -7.5312
  80   1.0000      -0.262837        -7.1522
  81   1.0000      -0.246095        -6.6966
  82   1.0000      -0.241492        -6.5713
  83   1.0000      -0.239210        -6.5092
  84   0.0000      -0.156167        -4.2495
  85   0.0000      -0.072780        -1.9804
  86   0.0000      -0.033023        -0.8986
  87   0.0000      -0.023219        -0.6318
  88   0.0000      -0.016379        -0.4457

MULLIKEN ATOMIC CHARGES AND SPIN POPULATIONS
--------------------------------------------
   0 C :   -0.506787    0.313579
   1 C :   -0.135309    0.287355
   2 C :   -0.382565   -0.068923
   3 C :    0.404055   -0.019945
   4 C :    0.321890    0.141101
   5 C :   -0.407612   -0.081900
   6 C :    0.547674    0.199565
   7 C :    0.257918   -0.066926
   8 C :   -0.359912    0.108221
   9 H :    0.138156    0.003192
  10 H :    0.151573   -0.005961
  11 C :   -0.372581   -0.016137
  12 H :    0.166487    0.006782
  13 H :    0.166431    0.006779
  14 C :   -0.268722    0.000467
  15 H :    0.139383   -0.000031
  16 H :    0.139465   -0.000031
  17 C :   -0.260320    0.000048
  18 H :    0.148491   -0.000009
  19 H :    0.148510   -0.000010
  20 C :   -0.510508   -0.000035
  21 H :    0.158201    0.000014
  22 H :    0.158172    0.000014
  23 C :   -0.357397    0.003665
  24 H :    0.154063   -0.001774
  25 H :    0.153965   -0.001772
  26 C :   -0.267514   -0.000452
  27 H :    0.145311    0.000113
  28 H :    0.145262    0.000112
  29 C :   -0.263212   -0.000068
  30 H :    0.143423    0.000013
  31 H :    0.143394    0.000014
  32 C :   -0.507225    0.000010
  33 H :    0.161630   -0.000006
  34 H :    0.161653   -0.000006
  35 C :   -0.273553    0.139844
  36 H :    0.147406   -0.000004
  37 H :    0.144380   -0.000003
  38 C :    0.581140   -0.025111
  39 C :   -0.269361    0.039026
  40 C :   -0.097041   -0.020901
  41 C :   -0.110897    0.046592
  42 C :   -0.100125   -0.020884
  43 C :   -0.263512    0.039084
  44 H :    0.113261   -0.002544
  45 H :    0.112166    0.000989
  46 H :    0.124565   -0.002067
  47 H :    0.123857   -0.002064
  48 H :    0.112269    0.000986
Sum of atomic charges         :   -0.0000000

LOEWDIN ATOMIC CHARGES AND SPIN POPULATIONS
-------------------------------------------
   0 C :   -0.156623    0.327390
   1 C :   -0.141364    0.250054
   2 C :   -0.023397   -0.031594
   3 C :   -0.050284    0.006903
   4 C :   -0.013254    0.110764
   5 C :   -0.005198   -0.047821
   6 C :   -0.032062    0.152534
   7 C :   -0.040850   -0.037990
   8 C :    0.020623    0.091865
   9 H :    0.062749   -0.000469
  10 H :    0.067390    0.000033
  11 C :   -0.039107   -0.000534
  12 H :    0.066763    0.004910
  13 H :    0.066731    0.004901
  14 C :   -0.080478   -0.000160
  15 H :    0.043615   -0.000065
  16 H :    0.043641   -0.000065
  17 C :   -0.086559   -0.000044
  18 H :    0.042708    0.000015
  19 H :    0.042709    0.000015
  20 C :   -0.078380   -0.000028
  21 H :    0.033569    0.000008
  22 H :    0.033568    0.000008
  23 C :   -0.043271   -0.000083
  24 H :    0.059674   -0.001484
  25 H :    0.059676   -0.001482
  26 C :   -0.076630   -0.000120
  27 H :    0.046412    0.000097
  28 H :    0.046399    0.000097
  29 C :   -0.090138   -0.000035
  30 H :    0.040645   -0.000012
  31 H :    0.040645   -0.000012
  32 C :   -0.075956    0.000002
  33 H :    0.035163   -0.000003
  34 H :    0.035162   -0.000003
  35 C :   -0.005270    0.111011
  36 H :    0.032762   -0.000005
  37 H :    0.032125   -0.000002
  38 C :   -0.074487   -0.013200
  39 C :   -0.005024    0.031781
  40 C :   -0.036820   -0.012793
  41 C :   -0.027771    0.036521
  42 C :   -0.037195   -0.012789
  43 C :   -0.005613    0.031727
  44 H :    0.051801    0.000201
  45 H :    0.052625   -0.000091
  46 H :    0.058097    0.000068
  47 H :    0.057745    0.000069
  48 H :    0.052736   -0.000090

  Mayer bond orders larger than 0.100000
B(  0-C ,  1-C ) :   2.0347 B(  1-C ,  3-C ) :   1.0845 B(  1-C ,  8-C ) :   0.1124
B(  2-C ,  6-C ) :   0.8574 B(  2-C , 35-C ) :   2.4347 B(  3-C ,  4-C ) :   1.2576
B(  3-C ,  5-C ) :   0.1026 B(  3-C ,  8-C ) :   1.3313 B(  4-C ,  5-C ) :   1.4965
B(  4-C ,  6-C ) :   0.1062 B(  4-C , 11-C ) :   0.9629 B(  5-C ,  6-C ) :   1.3820
B(  5-C ,  9-H ) :   0.9647 B(  6-C ,  7-C ) :   1.3117 B(  6-C ,  8-C ) :   0.1397
B(  6-C , 35-C ) :   0.1171 B(  7-C ,  8-C ) :   1.5120 B(  7-C , 23-C ) :   0.9666
B(  8-C , 10-H ) :   0.9605 B( 11-C , 12-H ) :   0.9520 B( 11-C , 13-H ) :   0.9519
B( 11-C , 14-C ) :   1.0149 B( 14-C , 15-H ) :   0.9615 B( 14-C , 16-H ) :   0.9616
B( 14-C , 17-C ) :   0.9891 B( 17-C , 18-H ) :   0.9702 B( 17-C , 19-H ) :   0.9702
B( 17-C , 20-C ) :   0.9541 B( 20-C , 21-H ) :   0.9732 B( 20-C , 22-H ) :   0.9732
B( 20-C , 36-H ) :   0.9672 B( 23-C , 24-H ) :   0.9554 B( 23-C , 25-H ) :   0.9555
B( 23-C , 26-C ) :   1.0239 B( 26-C , 27-H ) :   0.9604 B( 26-C , 28-H ) :   0.9605
B( 26-C , 29-C ) :   0.9867 B( 29-C , 30-H ) :   0.9718 B( 29-C , 31-H ) :   0.9717
B( 29-C , 32-C ) :   0.9577 B( 32-C , 33-H ) :   0.9722 B( 32-C , 34-H ) :   0.9722
B( 32-C , 37-H ) :   0.9668 B( 35-C , 38-C ) :   1.0231 B( 38-C , 39-C ) :   1.3791
B( 38-C , 43-C ) :   1.3750 B( 39-C , 40-C ) :   1.4842 B( 39-C , 46-H ) :   0.9789
B( 40-C , 41-C ) :   1.4499 B( 40-C , 48-H ) :   0.9722 B( 41-C , 42-C ) :   1.4527
B( 41-C , 44-H ) :   0.9626 B( 42-C , 43-C ) :   1.4837 B( 42-C , 45-H ) :   0.9730
B( 43-C , 47-H ) :   0.9770

FINAL SINGLE POINT ENERGY      -928.920541650222

DIPOLE MOMENT
-------------
                                X             Y             Z
Electronic contribution:      9.15565      -0.22942      -0.00834
Nuclear contribution   :     -5.18751       0.12269       0.01508
                        -----------------------------------------
Total Dipole Moment    :      3.96814      -0.10673       0.00674
                        -----------------------------------------
Magnitude (a.u.)       :      3.96958
Magnitude (Debye)      :     10.08987

Rotational constants in cm-1:     0.006467     0.004312     0.002597
Rotational constants in MHz :   193.866239   129.274253    77.854918

                             ****ORCA TERMINATED NORMALLY****
TOTAL RUN TIME: 0 days 0 hours 17 minutes 20 seconds 612 msec
