                         Program Version 5.0.4 -  RELEASE  -
|  1> ! B3LYP cc-pVDZ OPT
|  2> %pal nprocs 16 end
|  3> *XYZFile 0 2 model.xyz
|  4>
|  5>                          ****END OF INPUT****
 Total Charge           Charge          ....    0
 Multiplicity           Mult            ....    2
 Number of Electrons    NEL             ....  169
FINAL SINGLE POINT ENERGY      -928.844859572184
                    ***********************HURRAY********************

CARTESIAN COORDINATES (ANGSTROEM)
---------------------------------
  C     -4.099899    0.082567   -0.018222
  C     -2.815921    0.043418   -0.012229
  C      2.806049   -0.003031   -0.008541
  C     -1.423093    0.006863   -0.011428
  C     -0.707962   -1.246480   -0.013936
  C      0.676236   -1.193941   -0.012699
  C      1.390993    0.033560   -0.009300
  C      0.691892    1.284761   -0.006775
  C     -0.689981    1.235246   -0.007997
  H      1.260463   -2.113783   -0.014437
  H     -1.277924    2.152514   -0.006310
  C     -1.482008   -2.545169   -0.017734
  H     -2.162351   -2.531957   -0.888129
  H     -2.163386   -2.536406    0.851912
  C     -0.663838   -3.838606   -0.020482
  H     -0.000096   -3.863432   -0.904786
  H     -0.001596   -3.868106    0.864805
  C     -1.548663   -5.091379   -0.024540
  H     -2.215661   -5.067542    0.856707
  H     -2.213902   -5.063080   -0.906983
  C     -0.745911   -6.394552   -0.027052
  H     -0.097468   -6.468101    0.863227
  H     -0.095359   -6.463360   -0.916169
  C      1.475014    2.581762   -0.003063
  H      2.150207    2.572768    0.872597
  H      2.151368    2.577042   -0.877865
  C      0.659386    3.877214   -0.000463
  H     -0.002720    3.905301   -0.885088
  H     -0.004360    3.900769    0.883063
  C      1.544472    5.129641    0.003570
  H      2.209340    5.102453    0.886978
  H      2.211255    5.106769   -0.878515
  C      0.741225    6.432647    0.005903
  H      0.090431    6.500190    0.894528
  H      0.092772    6.504832   -0.884068
  C      4.030698   -0.050771   -0.009906
  H     -1.407951   -7.275432   -0.030188
  H      1.402772    7.313924    0.009079
  C      5.453343   -0.107447   -0.009657
  C      6.120738   -1.353300   -0.011991
  C      7.513356   -1.403494   -0.011667
  C      8.262125   -0.220420   -0.009064
  C      7.610872    1.019106   -0.006781
  C      6.218765    1.080757   -0.007089
  H      9.353658   -0.264543   -0.008825
  H      8.193249    1.943256   -0.004756
  H      5.532020   -2.272375   -0.014021
  H      5.705859    2.044207   -0.005329
  H      8.019799   -2.371347   -0.013462

 Multiplicity           Mult            ....    2
 Number of Electrons    NEL             ....  169
 Basis Dimension        Dim             ....  461

ORBITAL ENERGIES
----------------
                 SPIN UP ORBITALS
  NO   OCC          E(Eh)            E(eV)
   0   1.0000     -10.243929      -278.7515
   1   1.0000     -10.235756      -278.5291
   2   1.0000     -10.229517      -278.3593
   3   1.0000     -10.222997      -278.1819
   4   1.0000     -10.219870      -278.0968
   5   1.0000     -10.219371      -278.0832
   6   1.0000     -10.217100      -278.0214
   7   1.0000     -10.216953      -278.0174
   8   1.0000     -10.215129      -277.9678
   9   1.0000     -10.212605      -277.8991
  10   1.0000     -10.212525      -277.8969
  11   1.0000     -10.212492      -277.8960
  12   1.0000     -10.210877      -277.8521
  13   1.0000     -10.209954      -277.8270
  14   1.0000     -10.201253      -277.5902
  15   1.0000     -10.192751      -277.3589
  16   1.0000     -10.191176      -277.3160
  17   1.0000     -10.189628      -277.2739
  18   1.0000     -10.187885      -277.2264
  19   1.0000     -10.184342      -277.1300
  20   1.0000     -10.180733      -277.0318
  21   1.0000     -10.178296      -276.9655
  22   1.0000     -10.170878      -276.7637
  23   1.0000     -10.168866      -276.7089
  24   1.0000      -0.892951       -24.2984
  25   1.0000      -0.882815       -24.0226
  26   1.0000      -0.833104       -22.6699
  27   1.0000      -0.814696       -22.1690
  28   1.0000      -0.802342       -21.8328
  29   1.0000      -0.796073       -21.6623
  30   1.0000      -0.777321       -21.1520
  31   1.0000      -0.769778       -20.9467
  32   1.0000      -0.753147       -20.4942
  33   1.0000      -0.738888       -20.1062
  34   1.0000      -0.717980       -19.5372
  35   1.0000      -0.706753       -19.2317
  36   1.0000      -0.663031       -18.0420
  37   1.0000      -0.657167       -17.8824
  38   1.0000      -0.632563       -17.2129
  39   1.0000      -0.629906       -17.1406
  40   1.0000      -0.627393       -17.0722
  41   1.0000      -0.601784       -16.3754
  42   1.0000      -0.585985       -15.9455
  43   1.0000      -0.572877       -15.5888
  44   1.0000      -0.557501       -15.1704
  45   1.0000      -0.524890       -14.2830
  46   1.0000      -0.522228       -14.2105
  47   1.0000      -0.498035       -13.5522
  48   1.0000      -0.492790       -13.4095
  49   1.0000      -0.480677       -13.0799
  50   1.0000      -0.476557       -12.9678
  51   1.0000      -0.475448       -12.9376
  52   1.0000      -0.453688       -12.3455
  53   1.0000      -0.445469       -12.1218
  54   1.0000      -0.442472       -12.0403
  55   1.0000      -0.435292       -11.8449
  56   1.0000      -0.434857       -11.8331
  57   1.0000      -0.429956       -11.6997
  58   1.0000      -0.423929       -11.5357
  59   1.0000      -0.418348       -11.3838
  60   1.0000      -0.409792       -11.1510
  61   1.0000      -0.403745       -10.9865
  62   1.0000      -0.391177       -10.6445
  63   1.0000      -0.382281       -10.4024
  64   1.0000      -0.378819       -10.3082
  65   1.0000      -0.374315       -10.1856
  66   1.0000      -0.369234       -10.0474
  67   1.0000      -0.367087        -9.9890
  68   1.0000      -0.366847        -9.9824
  69   1.0000      -0.353921        -9.6307
  70   1.0000      -0.344096        -9.3633
  71   1.0000      -0.341278        -9.2866
  72   1.0000      -0.336168        -9.1476
  73   1.0000      -0.332612        -9.0508
  74   1.0000      -0.330815        -9.0019
  75   1.0000      -0.330213        -8.9855
  76   1.0000      -0.326478        -8.8839
  77   1.0000      -0.310990        -8.4625
  78   1.0000      -0.291544        -7.9333
  79   1.0000      -0.277552        -7.5526
  80   1.0000      -0.265907        -7.2357
  81   1.0000      -0.262490        -7.1427
  82   1.0000      -0.243663        -6.6304
  83   1.0000      -0.242738        -6.6052
  84   1.0000      -0.218488        -5.9454
  85   0.0000      -0.080227        -2.1831
  86   0.0000      -0.028694        -0.7808
  87   0.0000      -0.028626        -0.7790
  88   0.0000      -0.019198        -0.5224
  89   0.0000       0.023087         0.6282

                 SPIN DOWN ORBITALS
  NO   OCC          E(Eh)            E(eV)
   0   1.0000     -10.240854      -278.6678
   1   1.0000     -10.236217      -278.5416
   2   1.0000     -10.229955      -278.3712
   3   1.0000     -10.220920      -278.1254
   4   1.0000     -10.220883      -278.1244
   5   1.0000     -10.217362      -278.0286
   6   1.0000     -10.216511      -278.0054
   7   1.0000     -10.216363      -278.0014
   8   1.0000     -10.214503      -277.9507
   9   1.0000     -10.213432      -277.9216
  10   1.0000     -10.212889      -277.9068
  11   1.0000     -10.212768      -277.9035
  12   1.0000     -10.211103      -277.8582
  13   1.0000     -10.209172      -277.8057
  14   1.0000     -10.201199      -277.5887
  15   1.0000     -10.192890      -277.3626
  16   1.0000     -10.191179      -277.3161
  17   1.0000     -10.189629      -277.2739
  18   1.0000     -10.187888      -277.2265
  19   1.0000     -10.184343      -277.1301
  20   1.0000     -10.180733      -277.0318
  21   1.0000     -10.178297      -276.9655
  22   1.0000     -10.166936      -276.6564
  23   1.0000     -10.164487      -276.5897
  24   1.0000      -0.890007       -24.2183
  25   1.0000      -0.881988       -24.0001
  26   1.0000      -0.830840       -22.6083
  27   1.0000      -0.812985       -22.1224
  28   1.0000      -0.801845       -21.8193
  29   1.0000      -0.793384       -21.5891
  30   1.0000      -0.776821       -21.1384
  31   1.0000      -0.769246       -20.9322
  32   1.0000      -0.749842       -20.4042
  33   1.0000      -0.737931       -20.0801
  34   1.0000      -0.711206       -19.3529
  35   1.0000      -0.698404       -19.0045
  36   1.0000      -0.662296       -18.0220
  37   1.0000      -0.652049       -17.7431
  38   1.0000      -0.629612       -17.1326
  39   1.0000      -0.629330       -17.1249
  40   1.0000      -0.626979       -17.0610
  41   1.0000      -0.600480       -16.3399
  42   1.0000      -0.585855       -15.9419
  43   1.0000      -0.572327       -15.5738
  44   1.0000      -0.556808       -15.1515
  45   1.0000      -0.523402       -14.2425
  46   1.0000      -0.519956       -14.1487
  47   1.0000      -0.497133       -13.5277
  48   1.0000      -0.491760       -13.3815
  49   1.0000      -0.480593       -13.0776
  50   1.0000      -0.476216       -12.9585
  51   1.0000      -0.474815       -12.9204
  52   1.0000      -0.453342       -12.3361
  53   1.0000      -0.444763       -12.1026
  54   1.0000      -0.442324       -12.0362
  55   1.0000      -0.434601       -11.8261
  56   1.0000      -0.432785       -11.7767
  57   1.0000      -0.429814       -11.6958
  58   1.0000      -0.422664       -11.5013
  59   1.0000      -0.418164       -11.3788
  60   1.0000      -0.409161       -11.1338
  61   1.0000      -0.400765       -10.9054
  62   1.0000      -0.386777       -10.5247
  63   1.0000      -0.381693       -10.3864
  64   1.0000      -0.378372       -10.2960
  65   1.0000      -0.374236       -10.1835
  66   1.0000      -0.368918       -10.0388
  67   1.0000      -0.366325        -9.9682
  68   1.0000      -0.364750        -9.9254
  69   1.0000      -0.351661        -9.5692
  70   1.0000      -0.341171        -9.2837
  71   1.0000      -0.336805        -9.1649
  72   1.0000      -0.336149        -9.1471
  73   1.0000      -0.332524        -9.0484
  74   1.0000      -0.330604        -8.9962
  75   1.0000      -0.329838        -8.9753
  76   1.0000      -0.325997        -8.8708
  77   1.0000      -0.297251        -8.0886
  78   1.0000      -0.290657        -7.9092
  79   1.0000      -0.276072        -7.5123
  80   1.0000      -0.261557        -7.1173
  81   1.0000      -0.244670        -6.6578
  82   1.0000      -0.236288        -6.4297
  83   1.0000      -0.234315        -6.3760
  84   0.0000      -0.153148        -4.1674
  85   0.0000      -0.069225        -1.8837
  86   0.0000      -0.027160        -0.7391
  87   0.0000      -0.018005        -0.4899
  88   0.0000      -0.012631        -0.3437

MULLIKEN ATOMIC CHARGES AND SPIN POPULATIONS
--------------------------------------------
   0 C :   -0.275073    0.310531
   1 C :   -0.101059    0.289154
   2 C :    0.291635   -0.075485
   3 C :    0.079973   -0.028526
   4 C :   -0.056879    0.143560
   5 C :    0.016586   -0.085387
   6 C :   -0.167803    0.208081
   7 C :   -0.063826   -0.074317
   8 C :    0.048568    0.119841
   9 H :   -0.046930    0.002727
  10 H :   -0.033296   -0.005599
  11 C :    0.058857   -0.013014
  12 H :    0.044039    0.007118
  13 H :    0.043954    0.007136
  14 C :   -0.040110    0.000353
  15 H :    0.014390   -0.000070
  16 H :    0.014362   -0.000070
  17 C :   -0.023908    0.000032
  18 H :    0.011090   -0.000010
  19 H :    0.011119   -0.000010
  20 C :    0.003012   -0.000049
  21 H :    0.015825    0.000013
  22 H :    0.015821    0.000013
  23 C :    0.038389    0.004863
  24 H :    0.033522   -0.002018
  25 H :    0.033540   -0.002014
  26 C :   -0.035924   -0.000370
  27 H :    0.021690    0.000026
  28 H :    0.021673    0.000026
  29 C :   -0.026939   -0.000042
  30 H :    0.005389    0.000009
  31 H :    0.005389    0.000010
  32 C :    0.004014    0.000016
  33 H :    0.020431   -0.000005
  34 H :    0.020450   -0.000005
  35 C :    0.162190    0.143275
  36 H :    0.015627   -0.000004
  37 H :    0.013808   -0.000003
  38 C :   -0.265830   -0.028997
  39 C :    0.037415    0.039696
  40 C :    0.042551   -0.021053
  41 C :    0.039551    0.045862
  42 C :    0.042384   -0.021043
  43 C :    0.034573    0.039662
  44 H :   -0.018764   -0.002046
  45 H :   -0.020090    0.000810
  46 H :   -0.032943   -0.001743
  47 H :   -0.032459   -0.001744
  48 H :   -0.019984    0.000811
Sum of atomic charges         :   -0.0000000

LOEWDIN ATOMIC CHARGES AND SPIN POPULATIONS
-------------------------------------------
   0 C :   -0.159584    0.323644
   1 C :   -0.110189    0.258300
   2 C :   -0.011851   -0.032051
   3 C :   -0.036843    0.001703
   4 C :    0.021051    0.111149
   5 C :   -0.004868   -0.047866
   6 C :   -0.017138    0.152570
   7 C :   -0.006447   -0.039374
   8 C :    0.020954    0.095269
   9 H :    0.032063   -0.000425
  10 H :    0.037688   -0.000239
  11 C :   -0.031074    0.000001
  12 H :    0.047488    0.005189
  13 H :    0.047458    0.005201
  14 C :   -0.044657   -0.000167
  15 H :    0.023282   -0.000080
  16 H :    0.023274   -0.000080
  17 C :   -0.045599   -0.000019
  18 H :    0.026551    0.000026
  19 H :    0.026562    0.000026
  20 C :   -0.067447   -0.000028
  21 H :    0.024652    0.000009
  22 H :    0.024653    0.000009
  23 C :   -0.034436   -0.000212
  24 H :    0.039435   -0.001573
  25 H :    0.039443   -0.001570
  26 C :   -0.042433   -0.000067
  27 H :    0.026935    0.000056
  28 H :    0.026923    0.000056
  29 C :   -0.047185   -0.000033
  30 H :    0.023724   -0.000011
  31 H :    0.023723   -0.000011
  32 C :   -0.066344    0.000004
  33 H :    0.026766   -0.000003
  34 H :    0.026770   -0.000003
  35 C :    0.005868    0.110413
  36 H :    0.028874   -0.000005
  37 H :    0.028216   -0.000002
  38 C :   -0.056144   -0.013049
  39 C :    0.007465    0.031226
  40 C :   -0.019425   -0.012446
  41 C :   -0.008566    0.035751
  42 C :   -0.019620   -0.012440
  43 C :    0.006466    0.031183
  44 H :    0.032050    0.000095
  45 H :    0.032693   -0.000052
  46 H :    0.033104   -0.000010
  47 H :    0.032933   -0.000010
  48 H :    0.032785   -0.000052

  Mayer bond orders larger than 0.100000
B(  0-C ,  1-C ) :   2.8978 B(  1-C ,  3-C ) :   1.0562 B(  2-C ,  6-C ) :   0.9231
B(  2-C , 35-C ) :   1.6800 B(  2-C , 38-C ) :  -0.1839 B(  3-C ,  4-C ) :   1.2772
B(  3-C ,  8-C ) :   1.2761 B(  4-C ,  5-C ) :   1.4842 B(  4-C , 11-C ) :   1.1013
B(  5-C ,  6-C ) :   1.3301 B(  5-C ,  9-H ) :   0.9240 B(  6-C ,  7-C ) :   1.3305
B(  7-C ,  8-C ) :   1.4937 B(  7-C , 23-C ) :   1.0937 B(  8-C , 10-H ) :   0.9248
B( 11-C , 12-H ) :   0.8926 B( 11-C , 13-H ) :   0.8926 B( 11-C , 14-C ) :   1.1009
B( 14-C , 15-H ) :   0.9285 B( 14-C , 16-H ) :   0.9285 B( 14-C , 17-C ) :   1.0753
B( 17-C , 18-H ) :   0.9414 B( 17-C , 19-H ) :   0.9414 B( 17-C , 20-C ) :   1.1056
B( 20-C , 21-H ) :   0.9661 B( 20-C , 22-H ) :   0.9661 B( 20-C , 36-H ) :   0.9619
B( 23-C , 24-H ) :   0.8967 B( 23-C , 25-H ) :   0.8967 B( 23-C , 26-C ) :   1.1045
B( 26-C , 27-H ) :   0.9299 B( 26-C , 28-H ) :   0.9299 B( 26-C , 29-C ) :   1.0740
B( 29-C , 30-H ) :   0.9411 B( 29-C , 31-H ) :   0.9411 B( 29-C , 32-C ) :   1.1066
B( 32-C , 33-H ) :   0.9662 B( 32-C , 34-H ) :   0.9662 B( 32-C , 37-H ) :   0.9613
B( 35-C , 38-C ) :   0.9516 B( 38-C , 39-C ) :   1.4289 B( 38-C , 43-C ) :   1.4269
B( 39-C , 40-C ) :   1.4745 B( 39-C , 46-H ) :   0.9418 B( 40-C , 41-C ) :   1.4407
B( 40-C , 48-H ) :   0.9388 B( 41-C , 42-C ) :   1.4401 B( 41-C , 44-H ) :   0.9441
B( 42-C , 43-C ) :   1.4746 B( 42-C , 45-H ) :   0.9388 B( 43-C , 47-H ) :   0.9421

FINAL SINGLE POINT ENERGY      -928.844859602673

DIPOLE MOMENT
-------------
                                X             Y             Z
Electronic contribution:      8.91333      -0.21411       0.00266
Nuclear contribution   :     -5.17355       0.11416       0.00481
                        -----------------------------------------
Total Dipole Moment    :      3.73979      -0.09995       0.00747
                        -----------------------------------------
Magnitude (a.u.)       :      3.74113
Magnitude (Debye)      :      9.50919

Rotational constants in cm-1:     0.006498     0.004327     0.002607
Rotational constants in MHz :   194.800882   129.705298    78.164376

                             ****ORCA TERMINATED NORMALLY****
TOTAL RUN TIME: 0 days 0 hours 4 minutes 37 seconds 765 msec
