                         Program Version 4.2.1 -  RELEASE  -
|  1> ! B3LYP cc-pVDZ OPT
|  2> %pal nprocs 16 end
|  3> *XYZFile 0 2 model.xyz
|  4>
|  5>                          ****END OF INPUT****
 Total Charge           Charge          ....    0
 Multiplicity           Mult            ....    2
 Number of Electrons    NEL             ....  169
FINAL SINGLE POINT ENERGY      -928.820441199262
FINAL SINGLE POINT ENERGY      -928.842206296139
FINAL SINGLE POINT ENERGY      -928.843781660929
FINAL SINGLE POINT ENERGY      -928.843971874722
FINAL SINGLE POINT ENERGY      -928.843999744560
FINAL SINGLE POINT ENERGY      -928.844009084909
FINAL SINGLE POINT ENERGY      -928.844011806882
FINAL SINGLE POINT ENERGY      -928.844014025549
FINAL SINGLE POINT ENERGY      -928.844015099092
FINAL SINGLE POINT ENERGY      -928.844015466691
                    ***********************HURRAY********************

CARTESIAN COORDINATES (ANGSTROEM)
---------------------------------
  C     -4.098967    0.087649   -0.018603
  C     -2.815047    0.044667   -0.012458
  C      2.806862   -0.008947   -0.008584
  C     -1.422247    0.005174   -0.011616
  C     -0.708894   -1.249265   -0.014028
  C      0.675479   -1.198923   -0.012845
  C      1.391746    0.027780   -0.009474
  C      0.694256    1.279949   -0.007020
  C     -0.687609    1.232598   -0.008258
  H      1.257763   -2.119956   -0.014550
  H     -1.273669    2.150931   -0.006648
  C     -1.486165   -2.546334   -0.017599
  H     -2.166793   -2.531677   -0.888308
  H     -2.167517   -2.535988    0.852613
  C     -0.671077   -3.841512   -0.020366
  H     -0.007470   -3.867713   -0.905274
  H     -0.008441   -3.872109    0.865127
  C     -1.557915   -5.092292   -0.023885
  H     -2.224775   -5.067424    0.857968
  H     -2.223411   -5.063394   -0.906640
  C     -0.757529   -6.396373   -0.026244
  H     -0.108656   -6.471160    0.863891
  H     -0.107131   -6.466991   -0.915612
  C      1.479893    2.575731   -0.003505
  H      2.155518    2.565762    0.872279
  H      2.156092    2.570080   -0.878895
  C      0.665928    3.872021   -0.000661
  H      0.003382    3.900552   -0.885480
  H      0.002252    3.896000    0.883449
  C      1.551293    5.123627    0.003021
  H      2.216435    5.096723    0.886755
  H      2.218017    5.100803   -0.879638
  C      0.748444    6.426327    0.005308
  H      0.097582    6.494527    0.894121
  H      0.099548    6.498868   -0.884591
  C      4.031675   -0.053763   -0.009994
  H     -1.421069   -7.275944   -0.028889
  H      1.410119    7.307322    0.008206
  C      5.454574   -0.104157   -0.009614
  C      6.128342   -1.346466   -0.015274
  C      7.521137   -1.388941   -0.014795
  C      8.263853   -0.202169   -0.008716
  C      7.606163    1.033861   -0.003117
  C      6.213833    1.087895   -0.003585
  H      9.355918   -0.240878   -0.008329
  H      8.183514    1.961157    0.001688
  H      5.544563   -2.268661   -0.020082
  H      5.695622    2.048620    0.000827
  H      8.032889   -2.354074   -0.019252

 Multiplicity           Mult            ....    2
 Number of Electrons    NEL             ....  169
 Basis Dimension        Dim             ....  461

ORBITAL ENERGIES
----------------
                 SPIN UP ORBITALS
  NO   OCC          E(Eh)            E(eV)
   0   1.0000     -10.243815      -278.7484
   1   1.0000     -10.235577      -278.5242
   2   1.0000     -10.229389      -278.3558
   3   1.0000     -10.222982      -278.1815
   4   1.0000     -10.219782      -278.0944
   5   1.0000     -10.219291      -278.0810
   6   1.0000     -10.217060      -278.0203
   7   1.0000     -10.216860      -278.0149
   8   1.0000     -10.215238      -277.9708
   9   1.0000     -10.212554      -277.8977
  10   1.0000     -10.212474      -277.8955
  11   1.0000     -10.212448      -277.8948
  12   1.0000     -10.210726      -277.8480
  13   1.0000     -10.209892      -277.8253
  14   1.0000     -10.201531      -277.5978
  15   1.0000     -10.193116      -277.3688
  16   1.0000     -10.191434      -277.3230
  17   1.0000     -10.189907      -277.2815
  18   1.0000     -10.188177      -277.2344
  19   1.0000     -10.184627      -277.1378
  20   1.0000     -10.180973      -277.0383
  21   1.0000     -10.178532      -276.9719
  22   1.0000     -10.170818      -276.7620
  23   1.0000     -10.168722      -276.7050
  24   1.0000      -0.892959       -24.2986
  25   1.0000      -0.882860       -24.0239
  26   1.0000      -0.833176       -22.6719
  27   1.0000      -0.814739       -22.1702
  28   1.0000      -0.802566       -21.8389
  29   1.0000      -0.796099       -21.6629
  30   1.0000      -0.777495       -21.1567
  31   1.0000      -0.769793       -20.9471
  32   1.0000      -0.753169       -20.4948
  33   1.0000      -0.739086       -20.1116
  34   1.0000      -0.717986       -19.5374
  35   1.0000      -0.706882       -19.2352
  36   1.0000      -0.663144       -18.0451
  37   1.0000      -0.657162       -17.8823
  38   1.0000      -0.632566       -17.2130
  39   1.0000      -0.630034       -17.1441
  40   1.0000      -0.627416       -17.0729
  41   1.0000      -0.601862       -16.3775
  42   1.0000      -0.586216       -15.9517
  43   1.0000      -0.573041       -15.5932
  44   1.0000      -0.557515       -15.1707
  45   1.0000      -0.524928       -14.2840
  46   1.0000      -0.522208       -14.2100
  47   1.0000      -0.498024       -13.5519
  48   1.0000      -0.492832       -13.4106
  49   1.0000      -0.480946       -13.0872
  50   1.0000      -0.476591       -12.9687
  51   1.0000      -0.475734       -12.9454
  52   1.0000      -0.453709       -12.3461
  53   1.0000      -0.445441       -12.1211
  54   1.0000      -0.442502       -12.0411
  55   1.0000      -0.435412       -11.8482
  56   1.0000      -0.434979       -11.8364
  57   1.0000      -0.430228       -11.7071
  58   1.0000      -0.424118       -11.5408
  59   1.0000      -0.418601       -11.3907
  60   1.0000      -0.409894       -11.1538
  61   1.0000      -0.403693       -10.9850
  62   1.0000      -0.391181       -10.6446
  63   1.0000      -0.382378       -10.4050
  64   1.0000      -0.378840       -10.3088
  65   1.0000      -0.374503       -10.1907
  66   1.0000      -0.369264       -10.0482
  67   1.0000      -0.367180        -9.9915
  68   1.0000      -0.366981        -9.9861
  69   1.0000      -0.353992        -9.6326
  70   1.0000      -0.344122        -9.3640
  71   1.0000      -0.341527        -9.2934
  72   1.0000      -0.336471        -9.1559
  73   1.0000      -0.332896        -9.0586
  74   1.0000      -0.331041        -9.0081
  75   1.0000      -0.330417        -8.9911
  76   1.0000      -0.326703        -8.8900
  77   1.0000      -0.310948        -8.4613
  78   1.0000      -0.291471        -7.9313
  79   1.0000      -0.277525        -7.5518
  80   1.0000      -0.265912        -7.2358
  81   1.0000      -0.262465        -7.1420
  82   1.0000      -0.243570        -6.6279
  83   1.0000      -0.242670        -6.6034
  84   1.0000      -0.218447        -5.9443
  85   0.0000      -0.080323        -2.1857
  86   0.0000      -0.028812        -0.7840
  87   0.0000      -0.028517        -0.7760
  88   0.0000      -0.019164        -0.5215
  89   0.0000       0.023135         0.6295

                 SPIN DOWN ORBITALS
  NO   OCC          E(Eh)            E(eV)
   0   1.0000     -10.240732      -278.6645
   1   1.0000     -10.236040      -278.5368
   2   1.0000     -10.229827      -278.3677
   3   1.0000     -10.220900      -278.1248
   4   1.0000     -10.220801      -278.1221
   5   1.0000     -10.217278      -278.0263
   6   1.0000     -10.216468      -278.0042
   7   1.0000     -10.216268      -277.9988
   8   1.0000     -10.214606      -277.9536
   9   1.0000     -10.213382      -277.9203
  10   1.0000     -10.212841      -277.9055
  11   1.0000     -10.212727      -277.9024
  12   1.0000     -10.211044      -277.8566
  13   1.0000     -10.209014      -277.8014
  14   1.0000     -10.201477      -277.5963
  15   1.0000     -10.193256      -277.3726
  16   1.0000     -10.191438      -277.3231
  17   1.0000     -10.189908      -277.2815
  18   1.0000     -10.188180      -277.2345
  19   1.0000     -10.184628      -277.1378
  20   1.0000     -10.180972      -277.0383
  21   1.0000     -10.178533      -276.9720
  22   1.0000     -10.166876      -276.6548
  23   1.0000     -10.164344      -276.5859
  24   1.0000      -0.890016       -24.2186
  25   1.0000      -0.882032       -24.0013
  26   1.0000      -0.830929       -22.6107
  27   1.0000      -0.813021       -22.1234
  28   1.0000      -0.802068       -21.8254
  29   1.0000      -0.793410       -21.5898
  30   1.0000      -0.776989       -21.1429
  31   1.0000      -0.769259       -20.9326
  32   1.0000      -0.749879       -20.4053
  33   1.0000      -0.738119       -20.0852
  34   1.0000      -0.711336       -19.3564
  35   1.0000      -0.698410       -19.0047
  36   1.0000      -0.662411       -18.0251
  37   1.0000      -0.652047       -17.7431
  38   1.0000      -0.629656       -17.1338
  39   1.0000      -0.629414       -17.1272
  40   1.0000      -0.627001       -17.0616
  41   1.0000      -0.600560       -16.3421
  42   1.0000      -0.586086       -15.9482
  43   1.0000      -0.572484       -15.5781
  44   1.0000      -0.556822       -15.1519
  45   1.0000      -0.523458       -14.2440
  46   1.0000      -0.519921       -14.1478
  47   1.0000      -0.497120       -13.5273
  48   1.0000      -0.491806       -13.3827
  49   1.0000      -0.480865       -13.0850
  50   1.0000      -0.476250       -12.9594
  51   1.0000      -0.475105       -12.9283
  52   1.0000      -0.453362       -12.3366
  53   1.0000      -0.444741       -12.1020
  54   1.0000      -0.442354       -12.0371
  55   1.0000      -0.434717       -11.8292
  56   1.0000      -0.432928       -11.7806
  57   1.0000      -0.430088       -11.7033
  58   1.0000      -0.422854       -11.5064
  59   1.0000      -0.418416       -11.3857
  60   1.0000      -0.409263       -11.1366
  61   1.0000      -0.400699       -10.9036
  62   1.0000      -0.386775       -10.5247
  63   1.0000      -0.381793       -10.3891
  64   1.0000      -0.378393       -10.2966
  65   1.0000      -0.374422       -10.1885
  66   1.0000      -0.368941       -10.0394
  67   1.0000      -0.366467        -9.9721
  68   1.0000      -0.364865        -9.9285
  69   1.0000      -0.351734        -9.5712
  70   1.0000      -0.341421        -9.2905
  71   1.0000      -0.336830        -9.1656
  72   1.0000      -0.336452        -9.1553
  73   1.0000      -0.332807        -9.0561
  74   1.0000      -0.330819        -9.0020
  75   1.0000      -0.330039        -8.9808
  76   1.0000      -0.326209        -8.8766
  77   1.0000      -0.297191        -8.0870
  78   1.0000      -0.290584        -7.9072
  79   1.0000      -0.276041        -7.5114
  80   1.0000      -0.261599        -7.1185
  81   1.0000      -0.244635        -6.6568
  82   1.0000      -0.236176        -6.4267
  83   1.0000      -0.234273        -6.3749
  84   0.0000      -0.153126        -4.1668
  85   0.0000      -0.069329        -1.8865
  86   0.0000      -0.027044        -0.7359
  87   0.0000      -0.018115        -0.4929
  88   0.0000      -0.012606        -0.3430

MULLIKEN ATOMIC CHARGES AND SPIN POPULATIONS
--------------------------------------------
   0 C :   -0.273625    0.310449
   1 C :   -0.099303    0.288987
   2 C :    0.288626   -0.075403
   3 C :    0.074231   -0.028662
   4 C :   -0.059829    0.143545
   5 C :    0.021124   -0.085514
   6 C :   -0.169550    0.208391
   7 C :   -0.067493   -0.074562
   8 C :    0.054832    0.120105
   9 H :   -0.044404    0.002727
  10 H :   -0.032059   -0.005625
  11 C :    0.055096   -0.013016
  12 H :    0.045935    0.007104
  13 H :    0.045843    0.007122
  14 C :   -0.042505    0.000365
  15 H :    0.014707   -0.000078
  16 H :    0.014640   -0.000078
  17 C :   -0.023904    0.000036
  18 H :    0.011436   -0.000010
  19 H :    0.011405   -0.000010
  20 C :    0.002425   -0.000049
  21 H :    0.015773    0.000013
  22 H :    0.015771    0.000013
  23 C :    0.035898    0.004868
  24 H :    0.035266   -0.002020
  25 H :    0.035295   -0.002017
  26 C :   -0.038390   -0.000374
  27 H :    0.021883    0.000030
  28 H :    0.021901    0.000030
  29 C :   -0.026568   -0.000044
  30 H :    0.005579    0.000008
  31 H :    0.005667    0.000009
  32 C :    0.003285    0.000016
  33 H :    0.020412   -0.000005
  34 H :    0.020424   -0.000005
  35 C :    0.165747    0.143274
  36 H :    0.015533   -0.000004
  37 H :    0.013675   -0.000003
  38 C :   -0.267985   -0.029149
  39 C :    0.039250    0.039810
  40 C :    0.042728   -0.021134
  41 C :    0.032033    0.046099
  42 C :    0.046006   -0.021124
  43 C :    0.033038    0.039808
  44 H :   -0.013944   -0.002056
  45 H :   -0.020451    0.000814
  46 H :   -0.032615   -0.001750
  47 H :   -0.031990   -0.001749
  48 H :   -0.020846    0.000814
Sum of atomic charges         :    0.0000000

LOEWDIN ATOMIC CHARGES AND SPIN POPULATIONS
-------------------------------------------
   0 C :   -0.159419    0.323561
   1 C :   -0.110391    0.258140
   2 C :   -0.012014   -0.032097
   3 C :   -0.036818    0.001609
   4 C :    0.020987    0.111126
   5 C :   -0.004732   -0.047908
   6 C :   -0.017146    0.152750
   7 C :   -0.006462   -0.039515
   8 C :    0.021265    0.095438
   9 H :    0.032335   -0.000428
  10 H :    0.037772   -0.000236
  11 C :   -0.031845   -0.000016
  12 H :    0.047825    0.005178
  13 H :    0.047794    0.005191
  14 C :   -0.045069   -0.000162
  15 H :    0.023362   -0.000083
  16 H :    0.023342   -0.000083
  17 C :   -0.045709   -0.000017
  18 H :    0.026542    0.000027
  19 H :    0.026543    0.000027
  20 C :   -0.067380   -0.000028
  21 H :    0.024659    0.000009
  22 H :    0.024662    0.000009
  23 C :   -0.035078   -0.000214
  24 H :    0.039749   -0.001575
  25 H :    0.039778   -0.001573
  26 C :   -0.042851   -0.000071
  27 H :    0.026980    0.000057
  28 H :    0.026977    0.000057
  29 C :   -0.047263   -0.000034
  30 H :    0.023677   -0.000012
  31 H :    0.023697   -0.000012
  32 C :   -0.066284    0.000004
  33 H :    0.026784   -0.000003
  34 H :    0.026786   -0.000003
  35 C :    0.005991    0.110501
  36 H :    0.028945   -0.000005
  37 H :    0.028272   -0.000002
  38 C :   -0.056089   -0.013117
  39 C :    0.007673    0.031301
  40 C :   -0.019077   -0.012489
  41 C :   -0.009854    0.035918
  42 C :   -0.019140   -0.012483
  43 C :    0.006396    0.031285
  44 H :    0.032713    0.000098
  45 H :    0.032616   -0.000053
  46 H :    0.033087   -0.000009
  47 H :    0.032862   -0.000009
  48 H :    0.032554   -0.000053

  Mayer bond orders larger than 0.100000
B(  0-C ,  1-C ) :   2.8941 B(  1-C ,  3-C ) :   1.0591 B(  2-C ,  6-C ) :   0.9284
B(  2-C , 35-C ) :   1.6918 B(  2-C , 38-C ) :  -0.1844 B(  3-C ,  4-C ) :   1.2797
B(  3-C ,  8-C ) :   1.2715 B(  4-C ,  5-C ) :   1.4867 B(  4-C , 11-C ) :   1.1021
B(  5-C ,  6-C ) :   1.3241 B(  5-C ,  9-H ) :   0.9256 B(  6-C ,  7-C ) :   1.3328
B(  7-C ,  8-C ) :   1.4961 B(  7-C , 23-C ) :   1.0951 B(  8-C , 10-H ) :   0.9259
B( 11-C , 12-H ) :   0.8931 B( 11-C , 13-H ) :   0.8930 B( 11-C , 14-C ) :   1.0995
B( 14-C , 15-H ) :   0.9289 B( 14-C , 16-H ) :   0.9289 B( 14-C , 17-C ) :   1.0745
B( 17-C , 18-H ) :   0.9419 B( 17-C , 19-H ) :   0.9419 B( 17-C , 20-C ) :   1.1037
B( 20-C , 21-H ) :   0.9663 B( 20-C , 22-H ) :   0.9663 B( 20-C , 36-H ) :   0.9628
B( 23-C , 24-H ) :   0.8970 B( 23-C , 25-H ) :   0.8970 B( 23-C , 26-C ) :   1.1028
B( 26-C , 27-H ) :   0.9302 B( 26-C , 28-H ) :   0.9302 B( 26-C , 29-C ) :   1.0732
B( 29-C , 30-H ) :   0.9416 B( 29-C , 31-H ) :   0.9416 B( 29-C , 32-C ) :   1.1046
B( 32-C , 33-H ) :   0.9665 B( 32-C , 34-H ) :   0.9665 B( 32-C , 37-H ) :   0.9622
B( 35-C , 38-C ) :   0.9567 B( 38-C , 39-C ) :   1.4264 B( 38-C , 43-C ) :   1.4258
B( 39-C , 40-C ) :   1.4771 B( 39-C , 46-H ) :   0.9420 B( 40-C , 41-C ) :   1.4417
B( 40-C , 48-H ) :   0.9386 B( 41-C , 42-C ) :   1.4392 B( 41-C , 44-H ) :   0.9449
B( 42-C , 43-C ) :   1.4771 B( 42-C , 45-H ) :   0.9386 B( 43-C , 47-H ) :   0.9422

FINAL SINGLE POINT ENERGY      -928.844015489782

DIPOLE MOMENT
-------------
                                X             Y             Z
Electronic contribution:      8.93079      -0.20075       0.00157
Nuclear contribution   :     -5.19141       0.09798       0.00617
                        -----------------------------------------
Total Dipole Moment    :      3.73939      -0.10277       0.00773
                        -----------------------------------------
Magnitude (a.u.)       :      3.74081
Magnitude (Debye)      :      9.50837

Rotational constants in cm-1:     0.006518     0.004317     0.002607
Rotational constants in MHz :   195.393866   129.427425    78.158665

                             ****ORCA TERMINATED NORMALLY****
TOTAL RUN TIME: 0 days 0 hours 23 minutes 25 seconds 395 msec
