                         Program Version 5.0.4 -  RELEASE  -
|  1> ! B3LYP EPR-II AUTOAUX
|  2> %pal nprocs 16 end
|  3> *XYZFile 0 2 opt.xyz
|  4> %EPRNMR
|  5>         GTENSOR   TRUE
|  6>         NUCLEI    = ALL H {SHIFT, AISO, ADIP, AORB}
|  7>         ORI       GIAO
|  8> END
|  9>
| 10>                          ****END OF INPUT****

CARTESIAN COORDINATES (ANGSTROEM)
---------------------------------
  C     -4.099903    0.083492   -0.018353
  C     -2.815946    0.043661   -0.012330
  C      2.806008   -0.004269   -0.008539
  C     -1.423131    0.006681   -0.011521
  C     -0.708303   -1.246812   -0.013959
  C      0.675892   -1.194656   -0.012684
  C      1.390969    0.032616   -0.009322
  C      0.692187    1.284040   -0.006826
  C     -0.689714    1.234894   -0.008082
  H      1.259776   -2.114722   -0.014385
  H     -1.277365    2.152363   -0.006417
  C     -1.482678   -2.545270   -0.017742
  H     -2.162956   -2.531884   -0.888087
  H     -2.164001   -2.536305    0.851848
  C     -0.664773   -3.838900   -0.020463
  H     -0.001060   -3.863836   -0.904705
  H     -0.002550   -3.868472    0.864757
  C     -1.549765   -5.091581   -0.024486
  H     -2.216738   -5.067647    0.856694
  H     -2.214979   -5.063238   -0.906864
  C     -0.747242   -6.394947   -0.026958
  H     -0.098785   -6.468624    0.863263
  H     -0.096713   -6.463963   -0.916039
  C      1.475610    2.580851   -0.003105
  H      2.150780    2.571663    0.872485
  H      2.151902    2.575969   -0.877872
  C      0.660276    3.876516   -0.000466
  H     -0.001813    3.904739   -0.885019
  H     -0.003430    3.900164    0.883007
  C      1.545553    5.128838    0.003581
  H      2.210398    5.101571    0.886923
  H      2.212314    5.105900   -0.878438
  C      0.742544    6.432044    0.005924
  H      0.091762    6.499753    0.894507
  H      0.094086    6.504395   -0.883993
  C      4.030665   -0.051608   -0.009917
  H     -1.409442   -7.275742   -0.030044
  H      1.404248    7.313240    0.009096
  C      5.453353   -0.107226   -0.009647
  C      6.121835   -1.352501   -0.012193
  C      7.514506   -1.401458   -0.011853
  C      8.262259   -0.217737   -0.009063
  C      7.609924    1.021237   -0.006590
  C      6.217754    1.081653   -0.006879
  H      9.353772   -0.260949   -0.008833
  H      8.191473    1.945911   -0.004438
  H      5.533939   -2.272105   -0.014369
  H      5.703998    2.044629   -0.004992
  H      8.021809   -2.368853   -0.013791

 Total Charge           Charge          ....    0
 Multiplicity           Mult            ....    2
 Number of Electrons    NEL             ....  169
 Basis Dimension        Dim             ....  583

ORBITAL ENERGIES
----------------
                 SPIN UP ORBITALS
  NO   OCC          E(Eh)            E(eV)
   0   1.0000     -10.254747      -279.0458
   1   1.0000     -10.247801      -278.8569
   2   1.0000     -10.241979      -278.6984
   3   1.0000     -10.233415      -278.4654
   4   1.0000     -10.233196      -278.4594
   5   1.0000     -10.229976      -278.3718
   6   1.0000     -10.226236      -278.2700
   7   1.0000     -10.226081      -278.2658
   8   1.0000     -10.225810      -278.2584
   9   1.0000     -10.225173      -278.2411
  10   1.0000     -10.222301      -278.1630
  11   1.0000     -10.222175      -278.1595
  12   1.0000     -10.218854      -278.0691
  13   1.0000     -10.217616      -278.0355
  14   1.0000     -10.203180      -277.6426
  15   1.0000     -10.194541      -277.4076
  16   1.0000     -10.192453      -277.3508
  17   1.0000     -10.190798      -277.3057
  18   1.0000     -10.189099      -277.2595
  19   1.0000     -10.186274      -277.1826
  20   1.0000     -10.185193      -277.1532
  21   1.0000     -10.184054      -277.1222
  22   1.0000     -10.178647      -276.9751
  23   1.0000     -10.176088      -276.9054
  24   1.0000      -0.893730       -24.3196
  25   1.0000      -0.883914       -24.0525
  26   1.0000      -0.833551       -22.6821
  27   1.0000      -0.815211       -22.1830
  28   1.0000      -0.800957       -21.7951
  29   1.0000      -0.797418       -21.6988
  30   1.0000      -0.776394       -21.1268
  31   1.0000      -0.771139       -20.9838
  32   1.0000      -0.754796       -20.5390
  33   1.0000      -0.738236       -20.0884
  34   1.0000      -0.719726       -19.5848
  35   1.0000      -0.706485       -19.2244
  36   1.0000      -0.662633       -18.0312
  37   1.0000      -0.658877       -17.9290
  38   1.0000      -0.634130       -17.2555
  39   1.0000      -0.629673       -17.1343
  40   1.0000      -0.629051       -17.1174
  41   1.0000      -0.602216       -16.3871
  42   1.0000      -0.585561       -15.9339
  43   1.0000      -0.572882       -15.5889
  44   1.0000      -0.559707       -15.2304
  45   1.0000      -0.526161       -14.3176
  46   1.0000      -0.523434       -14.2434
  47   1.0000      -0.500155       -13.6099
  48   1.0000      -0.493169       -13.4198
  49   1.0000      -0.481021       -13.0892
  50   1.0000      -0.477075       -12.9819
  51   1.0000      -0.475604       -12.9419
  52   1.0000      -0.455884       -12.4052
  53   1.0000      -0.446919       -12.1613
  54   1.0000      -0.444707       -12.1011
  55   1.0000      -0.435417       -11.8483
  56   1.0000      -0.434783       -11.8311
  57   1.0000      -0.429534       -11.6882
  58   1.0000      -0.424418       -11.5490
  59   1.0000      -0.418079       -11.3765
  60   1.0000      -0.410040       -11.1578
  61   1.0000      -0.404615       -11.0101
  62   1.0000      -0.391948       -10.6655
  63   1.0000      -0.382829       -10.4173
  64   1.0000      -0.380969       -10.3667
  65   1.0000      -0.374109       -10.1800
  66   1.0000      -0.371301       -10.1036
  67   1.0000      -0.367766       -10.0074
  68   1.0000      -0.367243        -9.9932
  69   1.0000      -0.354741        -9.6530
  70   1.0000      -0.345352        -9.3975
  71   1.0000      -0.340604        -9.2683
  72   1.0000      -0.335787        -9.1372
  73   1.0000      -0.332185        -9.0392
  74   1.0000      -0.330757        -9.0004
  75   1.0000      -0.329488        -8.9658
  76   1.0000      -0.326229        -8.8772
  77   1.0000      -0.312724        -8.5097
  78   1.0000      -0.293521        -7.9871
  79   1.0000      -0.279039        -7.5930
  80   1.0000      -0.267291        -7.2734
  81   1.0000      -0.264318        -7.1925
  82   1.0000      -0.250130        -6.8064
  83   1.0000      -0.246307        -6.7023
  84   1.0000      -0.221072        -6.0157
  85   0.0000      -0.083393        -2.2693
  86   0.0000      -0.033514        -0.9120
  87   0.0000      -0.032894        -0.8951
  88   0.0000      -0.022314        -0.6072
  89   0.0000       0.001079         0.0294

                 SPIN DOWN ORBITALS
  NO   OCC          E(Eh)            E(eV)
   0   1.0000     -10.251673      -278.9622
   1   1.0000     -10.248269      -278.8696
   2   1.0000     -10.242267      -278.7063
   3   1.0000     -10.231369      -278.4097
   4   1.0000     -10.231177      -278.4045
   5   1.0000     -10.230936      -278.3979
   6   1.0000     -10.226729      -278.2834
   7   1.0000     -10.225639      -278.2538
   8   1.0000     -10.225484      -278.2496
   9   1.0000     -10.224535      -278.2237
  10   1.0000     -10.222590      -278.1708
  11   1.0000     -10.222453      -278.1671
  12   1.0000     -10.218750      -278.0663
  13   1.0000     -10.217247      -278.0254
  14   1.0000     -10.203132      -277.6413
  15   1.0000     -10.194673      -277.4112
  16   1.0000     -10.192457      -277.3508
  17   1.0000     -10.190799      -277.3057
  18   1.0000     -10.189102      -277.2596
  19   1.0000     -10.185194      -277.1532
  20   1.0000     -10.182608      -277.0829
  21   1.0000     -10.179738      -277.0048
  22   1.0000     -10.178647      -276.9751
  23   1.0000     -10.176089      -276.9054
  24   1.0000      -0.890714       -24.2376
  25   1.0000      -0.883061       -24.0293
  26   1.0000      -0.831016       -22.6131
  27   1.0000      -0.813620       -22.1397
  28   1.0000      -0.800470       -21.7819
  29   1.0000      -0.794661       -21.6238
  30   1.0000      -0.775944       -21.1145
  31   1.0000      -0.770598       -20.9690
  32   1.0000      -0.751284       -20.4435
  33   1.0000      -0.737397       -20.0656
  34   1.0000      -0.711099       -19.3500
  35   1.0000      -0.700121       -19.0513
  36   1.0000      -0.661819       -18.0090
  37   1.0000      -0.653868       -17.7926
  38   1.0000      -0.631224       -17.1765
  39   1.0000      -0.629120       -17.1192
  40   1.0000      -0.628607       -17.1053
  41   1.0000      -0.600914       -16.3517
  42   1.0000      -0.585430       -15.9304
  43   1.0000      -0.572368       -15.5749
  44   1.0000      -0.559017       -15.2116
  45   1.0000      -0.524431       -14.2705
  46   1.0000      -0.521385       -14.1876
  47   1.0000      -0.499231       -13.5848
  48   1.0000      -0.492090       -13.3905
  49   1.0000      -0.480915       -13.0864
  50   1.0000      -0.476720       -12.9722
  51   1.0000      -0.474942       -12.9238
  52   1.0000      -0.455519       -12.3953
  53   1.0000      -0.446146       -12.1402
  54   1.0000      -0.444550       -12.0968
  55   1.0000      -0.434110       -11.8127
  56   1.0000      -0.433272       -11.7899
  57   1.0000      -0.429388       -11.6842
  58   1.0000      -0.423115       -11.5135
  59   1.0000      -0.417900       -11.3716
  60   1.0000      -0.409405       -11.1405
  61   1.0000      -0.401550       -10.9267
  62   1.0000      -0.387419       -10.5422
  63   1.0000      -0.382210       -10.4005
  64   1.0000      -0.380495       -10.3538
  65   1.0000      -0.374032       -10.1779
  66   1.0000      -0.371027       -10.0962
  67   1.0000      -0.366677        -9.9778
  68   1.0000      -0.365253        -9.9390
  69   1.0000      -0.352404        -9.5894
  70   1.0000      -0.340498        -9.2654
  71   1.0000      -0.337959        -9.1963
  72   1.0000      -0.335760        -9.1365
  73   1.0000      -0.332100        -9.0369
  74   1.0000      -0.330577        -8.9955
  75   1.0000      -0.329120        -8.9558
  76   1.0000      -0.325812        -8.8658
  77   1.0000      -0.298860        -8.1324
  78   1.0000      -0.292592        -7.9618
  79   1.0000      -0.277534        -7.5521
  80   1.0000      -0.262708        -7.1486
  81   1.0000      -0.246719        -6.7136
  82   1.0000      -0.240759        -6.5514
  83   1.0000      -0.239686        -6.5222
  84   0.0000      -0.156427        -4.2566
  85   0.0000      -0.072396        -1.9700
  86   0.0000      -0.032062        -0.8725
  87   0.0000      -0.022450        -0.6109
  88   0.0000      -0.015641        -0.4256

MULLIKEN ATOMIC CHARGES AND SPIN POPULATIONS
--------------------------------------------
   0 C :   -0.508944    0.311856
   1 C :   -0.134786    0.285322
   2 C :   -0.383294   -0.068944
   3 C :    0.407305   -0.018414
   4 C :    0.329257    0.140454
   5 C :   -0.415558   -0.081165
   6 C :    0.552384    0.200306
   7 C :    0.264146   -0.065570
   8 C :   -0.365467    0.106886
   9 H :    0.137194    0.003162
  10 H :    0.150667   -0.005903
  11 C :   -0.370539   -0.016304
  12 H :    0.164768    0.007114
  13 H :    0.164677    0.007117
  14 C :   -0.264277    0.000473
  15 H :    0.136973   -0.000033
  16 H :    0.136939   -0.000032
  17 C :   -0.252393    0.000058
  18 H :    0.146006   -0.000010
  19 H :    0.146046   -0.000010
  20 C :   -0.508919   -0.000035
  21 H :    0.156449    0.000016
  22 H :    0.156442    0.000016
  23 C :   -0.354657    0.003542
  24 H :    0.151972   -0.001776
  25 H :    0.151864   -0.001776
  26 C :   -0.263664   -0.000431
  27 H :    0.143014    0.000120
  28 H :    0.142996    0.000120
  29 C :   -0.255104   -0.000072
  30 H :    0.140818    0.000014
  31 H :    0.140796    0.000014
  32 C :   -0.505776    0.000011
  33 H :    0.159962   -0.000006
  34 H :    0.159980   -0.000006
  35 C :   -0.274508    0.140391
  36 H :    0.146260   -0.000004
  37 H :    0.143221   -0.000003
  38 C :    0.587699   -0.025022
  39 C :   -0.270825    0.039153
  40 C :   -0.096469   -0.020924
  41 C :   -0.109739    0.046790
  42 C :   -0.099407   -0.020904
  43 C :   -0.265634    0.039199
  44 H :    0.112330   -0.002592
  45 H :    0.111494    0.001006
  46 H :    0.123684   -0.002104
  47 H :    0.123105   -0.002100
  48 H :    0.111512    0.001002
Sum of atomic charges         :   -0.0000000

LOEWDIN ATOMIC CHARGES AND SPIN POPULATIONS
-------------------------------------------
   0 C :   -0.156662    0.325495
   1 C :   -0.142789    0.247995
   2 C :   -0.022839   -0.031215
   3 C :   -0.051028    0.008240
   4 C :   -0.014852    0.110330
   5 C :   -0.006556   -0.047052
   6 C :   -0.032488    0.152970
   7 C :   -0.042449   -0.036861
   8 C :    0.019388    0.091040
   9 H :    0.065242   -0.000414
  10 H :    0.070023   -0.000045
  11 C :   -0.043562   -0.000531
  12 H :    0.069543    0.005149
  13 H :    0.069502    0.005147
  14 C :   -0.085253   -0.000166
  15 H :    0.045991   -0.000067
  16 H :    0.045985   -0.000067
  17 C :   -0.092521   -0.000035
  18 H :    0.045375    0.000016
  19 H :    0.045382    0.000016
  20 C :   -0.084652   -0.000027
  21 H :    0.035940    0.000010
  22 H :    0.035941    0.000010
  23 C :   -0.047401   -0.000089
  24 H :    0.062156   -0.001488
  25 H :    0.062164   -0.001487
  26 C :   -0.081527   -0.000112
  27 H :    0.048906    0.000103
  28 H :    0.048897    0.000103
  29 C :   -0.096018   -0.000038
  30 H :    0.043193   -0.000012
  31 H :    0.043192   -0.000012
  32 C :   -0.082273    0.000001
  33 H :    0.037597   -0.000004
  34 H :    0.037599   -0.000004
  35 C :   -0.004681    0.111207
  36 H :    0.035093   -0.000005
  37 H :    0.034434   -0.000002
  38 C :   -0.076220   -0.013030
  39 C :   -0.006761    0.031871
  40 C :   -0.039414   -0.012725
  41 C :   -0.030201    0.036620
  42 C :   -0.039809   -0.012723
  43 C :   -0.007170    0.031815
  44 H :    0.054371    0.000156
  45 H :    0.055204   -0.000071
  46 H :    0.060510    0.000030
  47 H :    0.060205    0.000030
  48 H :    0.055291   -0.000071

  Mayer bond orders larger than 0.100000
B(  0-C ,  1-C ) :   2.0311 B(  1-C ,  3-C ) :   1.0938 B(  1-C ,  8-C ) :   0.1162
B(  2-C ,  6-C ) :   0.8569 B(  2-C ,  7-C ) :   0.1005 B(  2-C , 35-C ) :   2.4324
B(  3-C ,  4-C ) :   1.2588 B(  3-C ,  5-C ) :   0.1057 B(  3-C ,  8-C ) :   1.3324
B(  4-C ,  5-C ) :   1.4957 B(  4-C ,  6-C ) :   0.1109 B(  4-C , 11-C ) :   0.9645
B(  5-C ,  6-C ) :   1.3842 B(  5-C ,  9-H ) :   0.9658 B(  6-C ,  7-C ) :   1.3150
B(  6-C ,  8-C ) :   0.1433 B(  6-C , 35-C ) :   0.1224 B(  7-C ,  8-C ) :   1.5117
B(  7-C , 23-C ) :   0.9680 B(  8-C , 10-H ) :   0.9614 B( 11-C , 12-H ) :   0.9513
B( 11-C , 13-H ) :   0.9512 B( 11-C , 14-C ) :   1.0160 B( 14-C , 15-H ) :   0.9607
B( 14-C , 16-H ) :   0.9607 B( 14-C , 17-C ) :   0.9910 B( 17-C , 18-H ) :   0.9695
B( 17-C , 19-H ) :   0.9695 B( 17-C , 20-C ) :   0.9536 B( 20-C , 21-H ) :   0.9731
B( 20-C , 22-H ) :   0.9731 B( 20-C , 36-H ) :   0.9670 B( 23-C , 24-H ) :   0.9548
B( 23-C , 25-H ) :   0.9550 B( 23-C , 26-C ) :   1.0253 B( 26-C , 27-H ) :   0.9596
B( 26-C , 28-H ) :   0.9597 B( 26-C , 29-C ) :   0.9885 B( 29-C , 30-H ) :   0.9711
B( 29-C , 31-H ) :   0.9710 B( 29-C , 32-C ) :   0.9573 B( 32-C , 33-H ) :   0.9721
B( 32-C , 34-H ) :   0.9721 B( 32-C , 37-H ) :   0.9665 B( 35-C , 38-C ) :   1.0250
B( 38-C , 39-C ) :   1.3797 B( 38-C , 43-C ) :   1.3753 B( 39-C , 40-C ) :   1.4837
B( 39-C , 41-C ) :   0.1008 B( 39-C , 46-H ) :   0.9795 B( 40-C , 41-C ) :   1.4500
B( 40-C , 48-H ) :   0.9724 B( 41-C , 42-C ) :   1.4525 B( 41-C , 43-C ) :   0.1021
B( 41-C , 44-H ) :   0.9627 B( 42-C , 43-C ) :   1.4837 B( 42-C , 45-H ) :   0.9733
B( 43-C , 47-H ) :   0.9776

FINAL SINGLE POINT ENERGY      -928.918714416321

DIPOLE MOMENT
-------------
                                X             Y             Z
Electronic contribution:      9.15107      -0.22434       0.00178
Nuclear contribution   :     -5.17354       0.11309       0.00539
                        -----------------------------------------
Total Dipole Moment    :      3.97753      -0.11125       0.00716
                        -----------------------------------------
Magnitude (a.u.)       :      3.97910
Magnitude (Debye)      :     10.11406

Rotational constants in cm-1:     0.006500     0.004325     0.002607
Rotational constants in MHz :   194.876145   129.670307    78.163739

CHEMICAL SHIELDING SUMMARY (ppm)  --  Orbital contribution
----------------------------------------------------------

  Nucleus  Element    Isotropic     Anisotropy
  -------  -------  ------------   ------------
      9       H           24.137         13.985
     10       H           24.985          9.967
     12       H           28.957          6.946
     13       H           28.954          6.913
     15       H           30.045          4.974
     16       H           30.044          4.974
     18       H           30.096          7.098
     19       H           30.095          7.105
     21       H           30.720          7.777
     22       H           30.721          7.776
     24       H           28.692          6.339
     25       H           28.692          6.343
     27       H           29.952          5.344
     28       H           29.951          5.341
     30       H           30.057          6.181
     31       H           30.057          6.183
     33       H           30.653          8.340
     34       H           30.653          8.342
     36       H           30.438         10.294
     37       H           30.443         10.202
     44       H           24.088          4.784
     45       H           24.163          5.501
     46       H           23.882          7.660
     47       H           23.862          7.765
     48       H           24.148          5.217

                             ****ORCA TERMINATED NORMALLY****
TOTAL RUN TIME: 0 days 1 hours 31 minutes 41 seconds 230 msec
