                         Program Version 5.0.4 -  RELEASE  -
|  1> ! B3LYP cc-pVDZ AUTOAUX
|  2> %pal nprocs 16 end
|  3> *XYZFile 0 1 opt.xyz
|  4> %EPRNMR
|  5>         GTENSOR   TRUE
|  6>         NUCLEI    = ALL H {SHIFT, AISO, ADIP, AORB}
|  7>         ORI       GIAO
|  8> END
|  9>
| 10>                          ****END OF INPUT****

CARTESIAN COORDINATES (ANGSTROEM)
---------------------------------
  C      5.589420    0.070494    0.000323
  C      1.354301   -0.004021    0.001196
  C      2.077945   -1.227820    0.007689
  C      3.469512   -1.152791    0.007131
  C      4.163016    0.077262    0.000380
  C      3.439788    1.301059   -0.006152
  C      2.048304    1.226133   -0.005582
  H      4.064131   -2.066154    0.011995
  H      1.453927    2.139663   -0.010423
  C      1.327068   -2.545299    0.015085
  H      0.649770   -2.560445   -0.858829
  H      0.651130   -2.551360    0.890169
  C      2.169133   -3.823744    0.021064
  H      2.832052   -3.841510   -0.863622
  H      2.833574   -3.832344    0.904737
  C      1.310358   -5.094424    0.028430
  H      0.644664   -5.078197    0.911385
  H      0.642923   -5.087221   -0.853327
  C      2.138719   -6.381672    0.034221
  H      2.790992   -6.434047    0.923079
  H      2.788685   -6.443530   -0.855716
  C      4.190583    2.618750   -0.013465
  H      4.867852    2.634114    0.860458
  H      4.866392    2.625255   -0.888634
  C      3.347619    3.896623   -0.019206
  H      2.683120    3.904644   -0.902840
  H      2.684763    3.913549    0.865542
  C      4.204462    5.168565   -0.026450
  H      4.871909    5.162381    0.855303
  H      4.869955    5.153678   -0.909575
  C      3.373807    6.454377   -0.031892
  H      2.723860    6.514952    0.858165
  H      2.721293    6.505760   -0.920647
  C      6.812027    0.055992   -0.001076
  H      1.495387   -7.276532    0.039834
  H      4.015531    7.350393   -0.037454
  C      8.239600    0.035628   -0.001211
  C      8.941501   -1.189921    0.003875
  C     10.335909   -1.205056    0.003839
  C     11.056317   -0.005132   -0.001284
  C     10.370981    1.215245   -0.006398
  C      8.976796    1.240323   -0.006394
  H     12.148719   -0.021001   -0.001290
  H     10.927851    2.155405   -0.010410
  H      8.377633   -2.124631    0.007864
  H      8.440408    2.191098   -0.010356
  H     10.865375   -2.160908    0.007840
  C     -0.071356    0.002038    0.001357
  C     -1.295231    0.012179    0.004436
  C     -6.956006   -0.056313    0.004008
  C     -2.720887    0.018228    0.004234
  C     -3.444538    1.242028   -0.001212
  C     -4.836104    1.166992   -0.000988
  C     -5.529601   -0.063073    0.004316
  C     -4.806365   -1.286870    0.009784
  C     -3.414882   -1.211937    0.009590
  H     -5.430729    2.080355   -0.005034
  H     -2.820499   -2.125468    0.013613
  C     -2.693666    2.559518   -0.007117
  H     -2.017607    2.566502   -0.882100
  H     -2.016489    2.573745    0.866906
  C     -3.535735    3.837965   -0.011861
  H     -4.200060    3.847496   -0.895612
  H     -4.198772    3.854792    0.872756
  C     -2.676964    5.108655   -0.017780
  H     -2.009586    5.100490    0.864012
  H     -2.011214    5.093396   -0.900709
  C     -3.505330    6.395906   -0.022218
  H     -4.155308    6.456818    0.867775
  H     -4.157591    6.449220   -0.911029
  C     -5.557159   -2.604571    0.015546
  H     -6.233055   -2.612075    0.890639
  H     -6.234338   -2.618941   -0.858464
  C     -4.714192   -3.882447    0.019923
  H     -4.051222   -3.898343   -0.864759
  H     -4.049807   -3.891493    0.903632
  C     -5.571032   -5.154399    0.025593
  H     -6.236578   -5.140572    0.908696
  H     -6.238426   -5.147162   -0.856192
  C     -4.740375   -6.440215    0.029548
  H     -4.087859   -6.492622    0.918242
  H     -4.090428   -6.499763   -0.860579
  C     -8.178610   -0.041628    0.002350
  H     -2.862001    7.290773   -0.026876
  H     -5.382096   -7.336239    0.034081
  C     -9.606184   -0.021301    0.001711
  C    -10.308126    1.204228   -0.002091
  C    -11.702534    1.219316   -0.002679
  C    -12.422902    0.019362    0.000481
  C    -11.737525   -1.200999    0.004243
  C    -10.343340   -1.226029    0.004847
  H    -13.515305    0.035192    0.000002
  H    -12.294362   -2.141183    0.006710
  H     -9.744292    2.138965   -0.004547
  H     -9.806920   -2.176790    0.007751
  H    -12.232030    2.175155   -0.005632

 Total Charge           Charge          ....    0
 Multiplicity           Mult            ....    1
 Number of Electrons    NEL             ....  326
 Basis Dimension        Dim             ....  894

ORBITAL ENERGIES
----------------

  NO   OCC          E(Eh)            E(eV)
   0   2.0000     -10.215346      -277.9737
   1   2.0000     -10.215346      -277.9737
   2   2.0000     -10.209350      -277.8105
   3   2.0000     -10.209296      -277.8091
   4   2.0000     -10.209287      -277.8088
   5   2.0000     -10.209282      -277.8087
   6   2.0000     -10.198198      -277.5071
   7   2.0000     -10.198198      -277.5071
   8   2.0000     -10.198068      -277.5035
   9   2.0000     -10.198064      -277.5034
  10   2.0000     -10.196107      -277.4502
  11   2.0000     -10.196107      -277.4502
  12   2.0000     -10.195960      -277.4462
  13   2.0000     -10.195960      -277.4462
  14   2.0000     -10.195006      -277.4202
  15   2.0000     -10.195006      -277.4202
  16   2.0000     -10.194504      -277.4066
  17   2.0000     -10.194504      -277.4065
  18   2.0000     -10.194287      -277.4007
  19   2.0000     -10.194287      -277.4007
  20   2.0000     -10.188737      -277.2496
  21   2.0000     -10.188733      -277.2495
  22   2.0000     -10.188666      -277.2477
  23   2.0000     -10.188666      -277.2477
  24   2.0000     -10.188122      -277.2329
  25   2.0000     -10.188121      -277.2329
  26   2.0000     -10.187493      -277.2158
  27   2.0000     -10.186103      -277.1780
  28   2.0000     -10.186103      -277.1780
  29   2.0000     -10.185532      -277.1624
  30   2.0000     -10.185530      -277.1624
  31   2.0000     -10.185527      -277.1623
  32   2.0000     -10.185196      -277.1533
  33   2.0000     -10.185194      -277.1532
  34   2.0000     -10.181707      -277.0583
  35   2.0000     -10.181706      -277.0583
  36   2.0000     -10.181255      -277.0460
  37   2.0000     -10.181255      -277.0460
  38   2.0000     -10.181205      -277.0447
  39   2.0000     -10.181204      -277.0447
  40   2.0000     -10.180754      -277.0324
  41   2.0000     -10.180754      -277.0324
  42   2.0000     -10.175782      -276.8971
  43   2.0000     -10.175782      -276.8971
  44   2.0000     -10.175277      -276.8834
  45   2.0000     -10.175277      -276.8834
  46   2.0000      -0.872034       -23.7292
  47   2.0000      -0.870141       -23.6777
  48   2.0000      -0.862203       -23.4617
  49   2.0000      -0.862135       -23.4599
  50   2.0000      -0.817885       -22.2558
  51   2.0000      -0.814607       -22.1666
  52   2.0000      -0.797601       -21.7038
  53   2.0000      -0.794902       -21.6304
  54   2.0000      -0.794715       -21.6253
  55   2.0000      -0.790973       -21.5235
  56   2.0000      -0.778393       -21.1811
  57   2.0000      -0.773537       -21.0490
  58   2.0000      -0.764315       -20.7981
  59   2.0000      -0.762551       -20.7501
  60   2.0000      -0.749970       -20.4077
  61   2.0000      -0.749970       -20.4077
  62   2.0000      -0.742488       -20.2041
  63   2.0000      -0.732361       -19.9286
  64   2.0000      -0.727890       -19.8069
  65   2.0000      -0.719249       -19.5718
  66   2.0000      -0.706546       -19.2261
  67   2.0000      -0.697941       -18.9919
  68   2.0000      -0.695078       -18.9140
  69   2.0000      -0.652042       -17.7430
  70   2.0000      -0.651554       -17.7297
  71   2.0000      -0.650679       -17.7059
  72   2.0000      -0.633007       -17.2250
  73   2.0000      -0.621971       -16.9247
  74   2.0000      -0.617949       -16.8153
  75   2.0000      -0.612714       -16.6728
  76   2.0000      -0.609002       -16.5718
  77   2.0000      -0.607982       -16.5440
  78   2.0000      -0.607935       -16.5428
  79   2.0000      -0.591380       -16.0923
  80   2.0000      -0.586290       -15.9538
  81   2.0000      -0.578537       -15.7428
  82   2.0000      -0.578267       -15.7355
  83   2.0000      -0.561722       -15.2852
  84   2.0000      -0.561192       -15.2708
  85   2.0000      -0.538725       -14.6595
  86   2.0000      -0.536729       -14.6051
  87   2.0000      -0.515259       -14.0209
  88   2.0000      -0.505121       -13.7450
  89   2.0000      -0.504766       -13.7354
  90   2.0000      -0.490146       -13.3376
  91   2.0000      -0.478158       -13.0114
  92   2.0000      -0.476445       -12.9647
  93   2.0000      -0.475734       -12.9454
  94   2.0000      -0.471889       -12.8407
  95   2.0000      -0.470234       -12.7957
  96   2.0000      -0.470084       -12.7916
  97   2.0000      -0.469014       -12.7625
  98   2.0000      -0.468973       -12.7614
  99   2.0000      -0.456626       -12.4254
 100   2.0000      -0.456571       -12.4239
 101   2.0000      -0.435031       -11.8378
 102   2.0000      -0.434981       -11.8364
 103   2.0000      -0.428266       -11.6537
 104   2.0000      -0.426861       -11.6155
 105   2.0000      -0.423278       -11.5180
 106   2.0000      -0.423273       -11.5178
 107   2.0000      -0.422973       -11.5097
 108   2.0000      -0.422218       -11.4891
 109   2.0000      -0.421745       -11.4763
 110   2.0000      -0.421629       -11.4731
 111   2.0000      -0.421580       -11.4718
 112   2.0000      -0.420927       -11.4540
 113   2.0000      -0.416079       -11.3221
 114   2.0000      -0.415726       -11.3125
 115   2.0000      -0.409908       -11.1542
 116   2.0000      -0.409481       -11.1426
 117   2.0000      -0.396942       -10.8013
 118   2.0000      -0.393839       -10.7169
 119   2.0000      -0.383216       -10.4278
 120   2.0000      -0.382399       -10.4056
 121   2.0000      -0.377345       -10.2681
 122   2.0000      -0.373320       -10.1585
 123   2.0000      -0.369952       -10.0669
 124   2.0000      -0.367742       -10.0068
 125   2.0000      -0.364485        -9.9182
 126   2.0000      -0.364397        -9.9158
 127   2.0000      -0.360591        -9.8122
 128   2.0000      -0.360089        -9.7985
 129   2.0000      -0.358323        -9.7505
 130   2.0000      -0.356119        -9.6905
 131   2.0000      -0.355850        -9.6832
 132   2.0000      -0.352368        -9.5884
 133   2.0000      -0.349388        -9.5073
 134   2.0000      -0.349300        -9.5049
 135   2.0000      -0.342560        -9.3215
 136   2.0000      -0.340541        -9.2666
 137   2.0000      -0.332970        -9.0606
 138   2.0000      -0.332570        -9.0497
 139   2.0000      -0.332447        -9.0464
 140   2.0000      -0.328032        -8.9262
 141   2.0000      -0.326903        -8.8955
 142   2.0000      -0.325301        -8.8519
 143   2.0000      -0.325114        -8.8468
 144   2.0000      -0.324312        -8.8250
 145   2.0000      -0.321983        -8.7616
 146   2.0000      -0.321757        -8.7555
 147   2.0000      -0.320895        -8.7320
 148   2.0000      -0.320830        -8.7302
 149   2.0000      -0.319392        -8.6911
 150   2.0000      -0.314998        -8.5715
 151   2.0000      -0.296376        -8.0648
 152   2.0000      -0.274556        -7.4710
 153   2.0000      -0.266685        -7.2569
 154   2.0000      -0.266538        -7.2529
 155   2.0000      -0.264719        -7.2034
 156   2.0000      -0.257792        -7.0149
 157   2.0000      -0.257792        -7.0149
 158   2.0000      -0.246852        -6.7172
 159   2.0000      -0.241735        -6.5780
 160   2.0000      -0.241452        -6.5702
 161   2.0000      -0.216471        -5.8905
 162   2.0000      -0.191137        -5.2011
 163   0.0000      -0.072197        -1.9646
 164   0.0000      -0.045358        -1.2343
 165   0.0000      -0.014277        -0.3885
 166   0.0000      -0.009430        -0.2566
 167   0.0000      -0.009430        -0.2566

MULLIKEN ATOMIC CHARGES
-----------------------
   0 C :    0.275944
   1 C :   -0.176388
   2 C :   -0.079172
   3 C :    0.005525
   4 C :   -0.159516
   5 C :   -0.077271
   6 C :   -0.000318
   7 H :   -0.056404
   8 H :   -0.055829
   9 C :    0.037754
  10 H :    0.032352
  11 H :    0.032347
  12 C :   -0.033258
  13 H :    0.016056
  14 H :    0.016105
  15 C :   -0.024989
  16 H :    0.005547
  17 H :    0.005547
  18 C :    0.003309
  19 H :    0.017123
  20 H :    0.017141
  21 C :    0.039994
  22 H :    0.031327
  23 H :    0.031332
  24 C :   -0.034747
  25 H :    0.016058
  26 H :    0.016008
  27 C :   -0.024305
  28 H :    0.005490
  29 H :    0.005495
  30 C :    0.003097
  31 H :    0.017049
  32 H :    0.017028
  33 C :    0.121182
  34 H :    0.012531
  35 H :    0.012608
  36 C :   -0.255267
  37 C :    0.029895
  38 C :    0.040155
  39 C :    0.032520
  40 C :    0.039841
  41 C :    0.027692
  42 H :   -0.027336
  43 H :   -0.027381
  44 H :   -0.040298
  45 H :   -0.039672
  46 H :   -0.027213
  47 C :    0.175196
  48 C :    0.175263
  49 C :    0.275846
  50 C :   -0.176222
  51 C :   -0.079138
  52 C :    0.005477
  53 C :   -0.159418
  54 C :   -0.077237
  55 C :   -0.000323
  56 H :   -0.056405
  57 H :   -0.055832
  58 C :    0.037739
  59 H :    0.032352
  60 H :    0.032346
  61 C :   -0.033253
  62 H :    0.016106
  63 H :    0.016053
  64 C :   -0.024988
  65 H :    0.005547
  66 H :    0.005546
  67 C :    0.003313
  68 H :    0.017142
  69 H :    0.017122
  70 C :    0.039990
  71 H :    0.031329
  72 H :    0.031331
  73 C :   -0.034748
  74 H :    0.016008
  75 H :    0.016060
  76 C :   -0.024314
  77 H :    0.005496
  78 H :    0.005489
  79 C :    0.003106
  80 H :    0.017028
  81 H :    0.017049
  82 C :    0.121132
  83 H :    0.012529
  84 H :    0.012609
  85 C :   -0.255234
  86 C :    0.029920
  87 C :    0.040152
  88 C :    0.032520
  89 C :    0.039846
  90 C :    0.027680
  91 H :   -0.027336
  92 H :   -0.027381
  93 H :   -0.040293
  94 H :   -0.039674
  95 H :   -0.027214
Sum of atomic charges:    0.0000000

LOEWDIN ATOMIC CHARGES
----------------------
   0 C :   -0.016650
   1 C :   -0.051228
   2 C :   -0.007564
   3 C :   -0.005966
   4 C :   -0.051044
   5 C :   -0.007839
   6 C :   -0.006859
   7 H :    0.028602
   8 H :    0.028629
   9 C :   -0.034720
  10 H :    0.038338
  11 H :    0.038352
  12 C :   -0.043646
  13 H :    0.024283
  14 H :    0.024280
  15 C :   -0.047305
  16 H :    0.023849
  17 H :    0.023850
  18 C :   -0.067748
  19 H :    0.025171
  20 H :    0.025174
  21 C :   -0.034617
  22 H :    0.038286
  23 H :    0.038299
  24 C :   -0.043743
  25 H :    0.024159
  26 H :    0.024165
  27 C :   -0.047261
  28 H :    0.023866
  29 H :    0.023867
  30 C :   -0.067750
  31 H :    0.025114
  32 H :    0.025110
  33 C :   -0.023930
  34 H :    0.027355
  35 H :    0.027392
  36 C :   -0.053327
  37 C :   -0.001530
  38 C :   -0.023975
  39 C :   -0.021843
  40 C :   -0.024164
  41 C :   -0.002500
  42 H :    0.028081
  43 H :    0.029260
  44 H :    0.030056
  45 H :    0.029906
  46 H :    0.029355
  47 C :   -0.019587
  48 C :   -0.019587
  49 C :   -0.016651
  50 C :   -0.051227
  51 C :   -0.007564
  52 C :   -0.005965
  53 C :   -0.051043
  54 C :   -0.007840
  55 C :   -0.006859
  56 H :    0.028602
  57 H :    0.028629
  58 C :   -0.034720
  59 H :    0.038348
  60 H :    0.038342
  61 C :   -0.043646
  62 H :    0.024280
  63 H :    0.024283
  64 C :   -0.047305
  65 H :    0.023851
  66 H :    0.023848
  67 C :   -0.067748
  68 H :    0.025174
  69 H :    0.025171
  70 C :   -0.034618
  71 H :    0.038298
  72 H :    0.038288
  73 C :   -0.043743
  74 H :    0.024166
  75 H :    0.024158
  76 C :   -0.047262
  77 H :    0.023868
  78 H :    0.023865
  79 C :   -0.067750
  80 H :    0.025110
  81 H :    0.025114
  82 C :   -0.023930
  83 H :    0.027355
  84 H :    0.027392
  85 C :   -0.053326
  86 C :   -0.001532
  87 C :   -0.023975
  88 C :   -0.021843
  89 C :   -0.024164
  90 C :   -0.002499
  91 H :    0.028081
  92 H :    0.029260
  93 H :    0.030055
  94 H :    0.029906
  95 H :    0.029354

  Mayer bond orders larger than 0.100000
B(  0-C ,  4-C ) :   0.8828 B(  0-C , 33-C ) :   1.7442 B(  0-C , 36-C ) :  -0.1790
B(  1-C ,  2-C ) :   1.4044 B(  1-C ,  6-C ) :   1.3764 B(  1-C , 47-C ) :   0.8900
B(  1-C , 48-C ) :  -0.1348 B(  1-C , 50-C ) :   0.1087 B(  2-C ,  3-C ) :   1.4405
B(  2-C ,  9-C ) :   1.0958 B(  3-C ,  4-C ) :   1.3760 B(  3-C ,  7-H ) :   0.9198
B(  4-C ,  5-C ) :   1.3992 B(  5-C ,  6-C ) :   1.4402 B(  5-C , 21-C ) :   1.0941
B(  6-C ,  8-H ) :   0.9209 B(  9-C , 10-H ) :   0.8961 B(  9-C , 11-H ) :   0.8962
B(  9-C , 12-C ) :   1.1050 B( 12-C , 13-H ) :   0.9292 B( 12-C , 14-H ) :   0.9291
B( 12-C , 15-C ) :   1.0746 B( 15-C , 16-H ) :   0.9410 B( 15-C , 17-H ) :   0.9410
B( 15-C , 18-C ) :   1.1062 B( 18-C , 19-H ) :   0.9662 B( 18-C , 20-H ) :   0.9662
B( 18-C , 34-H ) :   0.9617 B( 21-C , 22-H ) :   0.8969 B( 21-C , 23-H ) :   0.8969
B( 21-C , 24-C ) :   1.1050 B( 24-C , 25-H ) :   0.9291 B( 24-C , 26-H ) :   0.9291
B( 24-C , 27-C ) :   1.0748 B( 27-C , 28-H ) :   0.9410 B( 27-C , 29-H ) :   0.9410
B( 27-C , 30-C ) :   1.1062 B( 30-C , 31-H ) :   0.9662 B( 30-C , 32-H ) :   0.9662
B( 30-C , 35-H ) :   0.9617 B( 33-C , 36-C ) :   0.9336 B( 36-C , 37-C ) :   1.4418
B( 36-C , 41-C ) :   1.4384 B( 37-C , 38-C ) :   1.4708 B( 37-C , 44-H ) :   0.9400
B( 38-C , 39-C ) :   1.4442 B( 38-C , 46-H ) :   0.9378 B( 39-C , 40-C ) :   1.4437
B( 39-C , 42-H ) :   0.9432 B( 40-C , 41-C ) :   1.4709 B( 40-C , 43-H ) :   0.9379
B( 41-C , 45-H ) :   0.9404 B( 47-C , 48-C ) :   1.6916 B( 47-C , 50-C ) :  -0.1348
B( 48-C , 50-C ) :   0.8902 B( 49-C , 53-C ) :   0.8829 B( 49-C , 82-C ) :   1.7443
B( 49-C , 85-C ) :  -0.1790 B( 50-C , 51-C ) :   1.4043 B( 50-C , 55-C ) :   1.3763
B( 51-C , 52-C ) :   1.4404 B( 51-C , 58-C ) :   1.0958 B( 52-C , 53-C ) :   1.3760
B( 52-C , 56-H ) :   0.9198 B( 53-C , 54-C ) :   1.3991 B( 54-C , 55-C ) :   1.4402
B( 54-C , 70-C ) :   1.0941 B( 55-C , 57-H ) :   0.9209 B( 58-C , 59-H ) :   0.8962
B( 58-C , 60-H ) :   0.8961 B( 58-C , 61-C ) :   1.1050 B( 61-C , 62-H ) :   0.9291
B( 61-C , 63-H ) :   0.9292 B( 61-C , 64-C ) :   1.0746 B( 64-C , 65-H ) :   0.9410
B( 64-C , 66-H ) :   0.9410 B( 64-C , 67-C ) :   1.1062 B( 67-C , 68-H ) :   0.9662
B( 67-C , 69-H ) :   0.9662 B( 67-C , 83-H ) :   0.9617 B( 70-C , 71-H ) :   0.8969
B( 70-C , 72-H ) :   0.8969 B( 70-C , 73-C ) :   1.1050 B( 73-C , 74-H ) :   0.9291
B( 73-C , 75-H ) :   0.9291 B( 73-C , 76-C ) :   1.0748 B( 76-C , 77-H ) :   0.9410
B( 76-C , 78-H ) :   0.9410 B( 76-C , 79-C ) :   1.1062 B( 79-C , 80-H ) :   0.9662
B( 79-C , 81-H ) :   0.9662 B( 79-C , 84-H ) :   0.9617 B( 82-C , 85-C ) :   0.9336
B( 85-C , 86-C ) :   1.4417 B( 85-C , 90-C ) :   1.4384 B( 86-C , 87-C ) :   1.4708
B( 86-C , 93-H ) :   0.9400 B( 87-C , 88-C ) :   1.4442 B( 87-C , 95-H ) :   0.9378
B( 88-C , 89-C ) :   1.4437 B( 88-C , 91-H ) :   0.9432 B( 89-C , 90-C ) :   1.4709
B( 89-C , 92-H ) :   0.9379 B( 90-C , 94-H ) :   0.9404

FINAL SINGLE POINT ENERGY     -1781.801694250935

DIPOLE MOMENT
-------------
                                X             Y             Z
Electronic contribution:      0.00001       0.00031      -0.00831
Nuclear contribution   :     -0.00002      -0.00033       0.00809
                        -----------------------------------------
Total Dipole Moment    :     -0.00002      -0.00002      -0.00022
                        -----------------------------------------
Magnitude (a.u.)       :      0.00022
Magnitude (Debye)      :      0.00055

Rotational constants in cm-1:     0.003050     0.000701     0.000571
Rotational constants in MHz :    91.435861    21.005645    17.110567

CHEMICAL SHIELDING SUMMARY (ppm)
--------------------------------

  Nucleus  Element    Isotropic     Anisotropy
  -------  -------  ------------   ------------
      7       H           24.216         13.022
      8       H           24.212         13.071
     10       H           28.537          6.073
     11       H           28.537          6.065
     13       H           29.709          5.090
     14       H           29.708          5.096
     16       H           29.794          6.471
     17       H           29.794          6.478
     19       H           30.252          8.084
     20       H           30.251          8.083
     22       H           28.535          6.175
     23       H           28.536          6.163
     25       H           29.726          5.115
     26       H           29.727          5.109
     28       H           29.804          6.617
     29       H           29.804          6.616
     31       H           30.262          7.522
     32       H           30.262          7.522
     34       H           30.057         10.100
     35       H           30.056         10.468
     42       H           24.250          4.372
     43       H           24.196          5.595
     44       H           24.001          7.962
     45       H           23.983          8.058
     46       H           24.187          5.314
     56       H           24.216         13.021
     57       H           24.212         13.071
     59       H           28.538          6.064
     60       H           28.537          6.072
     62       H           29.707          5.097
     63       H           29.709          5.091
     65       H           29.795          6.473
     66       H           29.794          6.474
     68       H           30.251          8.084
     69       H           30.251          8.084
     71       H           28.536          6.158
     72       H           28.534          6.179
     74       H           29.728          5.105
     75       H           29.726          5.118
     77       H           29.803          6.616
     78       H           29.803          6.620
     80       H           30.263          7.524
     81       H           30.262          7.519
     83       H           30.057         10.100
     84       H           30.056         10.468
     91       H           24.251          4.371
     92       H           24.196          5.595
     93       H           24.001          7.963
     94       H           23.982          8.059
     95       H           24.187          5.314

                             ****ORCA TERMINATED NORMALLY****
TOTAL RUN TIME: 0 days 0 hours 6 minutes 21 seconds 98 msec
