                         Program Version 5.0.4 -  RELEASE  -
|  1> ! B3LYP EPR-II AUTOAUX
|  2> %pal nprocs 16 end
|  3> *XYZFile 0 1 opt.xyz
|  4> %EPRNMR
|  5>         GTENSOR   TRUE
|  6>         NUCLEI    = ALL H {SHIFT, AISO, ADIP, AORB}
|  7>         ORI       GIAO
|  8> END
|  9>
| 10>                          ****END OF INPUT****

CARTESIAN COORDINATES (ANGSTROEM)
---------------------------------
  C      5.589420    0.070494    0.000323
  C      1.354301   -0.004021    0.001196
  C      2.077945   -1.227820    0.007689
  C      3.469512   -1.152791    0.007131
  C      4.163016    0.077262    0.000380
  C      3.439788    1.301059   -0.006152
  C      2.048304    1.226133   -0.005582
  H      4.064131   -2.066154    0.011995
  H      1.453927    2.139663   -0.010423
  C      1.327068   -2.545299    0.015085
  H      0.649770   -2.560445   -0.858829
  H      0.651130   -2.551360    0.890169
  C      2.169133   -3.823744    0.021064
  H      2.832052   -3.841510   -0.863622
  H      2.833574   -3.832344    0.904737
  C      1.310358   -5.094424    0.028430
  H      0.644664   -5.078197    0.911385
  H      0.642923   -5.087221   -0.853327
  C      2.138719   -6.381672    0.034221
  H      2.790992   -6.434047    0.923079
  H      2.788685   -6.443530   -0.855716
  C      4.190583    2.618750   -0.013465
  H      4.867852    2.634114    0.860458
  H      4.866392    2.625255   -0.888634
  C      3.347619    3.896623   -0.019206
  H      2.683120    3.904644   -0.902840
  H      2.684763    3.913549    0.865542
  C      4.204462    5.168565   -0.026450
  H      4.871909    5.162381    0.855303
  H      4.869955    5.153678   -0.909575
  C      3.373807    6.454377   -0.031892
  H      2.723860    6.514952    0.858165
  H      2.721293    6.505760   -0.920647
  C      6.812027    0.055992   -0.001076
  H      1.495387   -7.276532    0.039834
  H      4.015531    7.350393   -0.037454
  C      8.239600    0.035628   -0.001211
  C      8.941501   -1.189921    0.003875
  C     10.335909   -1.205056    0.003839
  C     11.056317   -0.005132   -0.001284
  C     10.370981    1.215245   -0.006398
  C      8.976796    1.240323   -0.006394
  H     12.148719   -0.021001   -0.001290
  H     10.927851    2.155405   -0.010410
  H      8.377633   -2.124631    0.007864
  H      8.440408    2.191098   -0.010356
  H     10.865375   -2.160908    0.007840
  C     -0.071356    0.002038    0.001357
  C     -1.295231    0.012179    0.004436
  C     -6.956006   -0.056313    0.004008
  C     -2.720887    0.018228    0.004234
  C     -3.444538    1.242028   -0.001212
  C     -4.836104    1.166992   -0.000988
  C     -5.529601   -0.063073    0.004316
  C     -4.806365   -1.286870    0.009784
  C     -3.414882   -1.211937    0.009590
  H     -5.430729    2.080355   -0.005034
  H     -2.820499   -2.125468    0.013613
  C     -2.693666    2.559518   -0.007117
  H     -2.017607    2.566502   -0.882100
  H     -2.016489    2.573745    0.866906
  C     -3.535735    3.837965   -0.011861
  H     -4.200060    3.847496   -0.895612
  H     -4.198772    3.854792    0.872756
  C     -2.676964    5.108655   -0.017780
  H     -2.009586    5.100490    0.864012
  H     -2.011214    5.093396   -0.900709
  C     -3.505330    6.395906   -0.022218
  H     -4.155308    6.456818    0.867775
  H     -4.157591    6.449220   -0.911029
  C     -5.557159   -2.604571    0.015546
  H     -6.233055   -2.612075    0.890639
  H     -6.234338   -2.618941   -0.858464
  C     -4.714192   -3.882447    0.019923
  H     -4.051222   -3.898343   -0.864759
  H     -4.049807   -3.891493    0.903632
  C     -5.571032   -5.154399    0.025593
  H     -6.236578   -5.140572    0.908696
  H     -6.238426   -5.147162   -0.856192
  C     -4.740375   -6.440215    0.029548
  H     -4.087859   -6.492622    0.918242
  H     -4.090428   -6.499763   -0.860579
  C     -8.178610   -0.041628    0.002350
  H     -2.862001    7.290773   -0.026876
  H     -5.382096   -7.336239    0.034081
  C     -9.606184   -0.021301    0.001711
  C    -10.308126    1.204228   -0.002091
  C    -11.702534    1.219316   -0.002679
  C    -12.422902    0.019362    0.000481
  C    -11.737525   -1.200999    0.004243
  C    -10.343340   -1.226029    0.004847
  H    -13.515305    0.035192    0.000002
  H    -12.294362   -2.141183    0.006710
  H     -9.744292    2.138965   -0.004547
  H     -9.806920   -2.176790    0.007751
  H    -12.232030    2.175155   -0.005632

 Total Charge           Charge          ....    0
 Multiplicity           Mult            ....    1
 Number of Electrons    NEL             ....  326
 Basis Dimension        Dim             .... 1132

ORBITAL ENERGIES
----------------

  NO   OCC          E(Eh)            E(eV)
   0   2.0000     -10.226144      -278.2675
   1   2.0000     -10.226144      -278.2675
   2   2.0000     -10.218223      -278.0520
   3   2.0000     -10.218223      -278.0520
   4   2.0000     -10.217993      -278.0457
   5   2.0000     -10.217993      -278.0457
   6   2.0000     -10.206456      -277.7318
   7   2.0000     -10.206456      -277.7318
   8   2.0000     -10.206186      -277.7245
   9   2.0000     -10.206186      -277.7244
  10   2.0000     -10.204110      -277.6679
  11   2.0000     -10.204110      -277.6679
  12   2.0000     -10.203972      -277.6642
  13   2.0000     -10.203972      -277.6642
  14   2.0000     -10.203796      -277.6594
  15   2.0000     -10.203795      -277.6594
  16   2.0000     -10.203094      -277.6403
  17   2.0000     -10.203094      -277.6403
  18   2.0000     -10.202896      -277.6349
  19   2.0000     -10.202896      -277.6349
  20   2.0000     -10.200132      -277.5597
  21   2.0000     -10.200132      -277.5597
  22   2.0000     -10.198349      -277.5112
  23   2.0000     -10.197965      -277.5007
  24   2.0000     -10.197965      -277.5007
  25   2.0000     -10.196246      -277.4540
  26   2.0000     -10.194634      -277.4101
  27   2.0000     -10.194633      -277.4101
  28   2.0000     -10.194570      -277.4084
  29   2.0000     -10.194570      -277.4084
  30   2.0000     -10.186237      -277.1816
  31   2.0000     -10.186236      -277.1816
  32   2.0000     -10.185786      -277.1693
  33   2.0000     -10.185786      -277.1693
  34   2.0000     -10.182253      -277.0732
  35   2.0000     -10.182253      -277.0732
  36   2.0000     -10.181711      -277.0584
  37   2.0000     -10.181711      -277.0584
  38   2.0000     -10.181668      -277.0573
  39   2.0000     -10.181668      -277.0573
  40   2.0000     -10.181110      -277.0421
  41   2.0000     -10.181109      -277.0421
  42   2.0000     -10.173289      -276.8293
  43   2.0000     -10.173288      -276.8293
  44   2.0000     -10.172683      -276.8128
  45   2.0000     -10.172683      -276.8128
  46   2.0000      -0.870923       -23.6990
  47   2.0000      -0.869017       -23.6471
  48   2.0000      -0.862103       -23.4590
  49   2.0000      -0.862019       -23.4567
  50   2.0000      -0.816443       -22.2165
  51   2.0000      -0.812765       -22.1165
  52   2.0000      -0.796482       -21.6734
  53   2.0000      -0.793166       -21.5831
  54   2.0000      -0.792445       -21.5635
  55   2.0000      -0.789816       -21.4920
  56   2.0000      -0.778405       -21.1815
  57   2.0000      -0.773005       -21.0345
  58   2.0000      -0.762536       -20.7497
  59   2.0000      -0.761076       -20.7099
  60   2.0000      -0.750206       -20.4141
  61   2.0000      -0.750206       -20.4141
  62   2.0000      -0.742195       -20.1962
  63   2.0000      -0.730593       -19.8804
  64   2.0000      -0.726259       -19.7625
  65   2.0000      -0.719269       -19.5723
  66   2.0000      -0.706258       -19.2183
  67   2.0000      -0.696163       -18.9436
  68   2.0000      -0.693720       -18.8771
  69   2.0000      -0.650770       -17.7084
  70   2.0000      -0.650112       -17.6904
  71   2.0000      -0.649983       -17.6869
  72   2.0000      -0.632947       -17.2234
  73   2.0000      -0.620905       -16.8957
  74   2.0000      -0.616598       -16.7785
  75   2.0000      -0.612708       -16.6726
  76   2.0000      -0.608994       -16.5716
  77   2.0000      -0.608540       -16.5592
  78   2.0000      -0.608448       -16.5567
  79   2.0000      -0.590487       -16.0680
  80   2.0000      -0.585511       -15.9326
  81   2.0000      -0.577388       -15.7115
  82   2.0000      -0.577114       -15.7041
  83   2.0000      -0.560863       -15.2618
  84   2.0000      -0.560377       -15.2486
  85   2.0000      -0.539681       -14.6855
  86   2.0000      -0.537718       -14.6321
  87   2.0000      -0.514685       -14.0053
  88   2.0000      -0.504573       -13.7301
  89   2.0000      -0.504441       -13.7265
  90   2.0000      -0.489866       -13.3299
  91   2.0000      -0.478792       -13.0286
  92   2.0000      -0.476890       -12.9768
  93   2.0000      -0.474513       -12.9122
  94   2.0000      -0.470677       -12.8078
  95   2.0000      -0.469673       -12.7805
  96   2.0000      -0.469537       -12.7768
  97   2.0000      -0.468443       -12.7470
  98   2.0000      -0.468390       -12.7455
  99   2.0000      -0.455957       -12.4072
 100   2.0000      -0.455901       -12.4057
 101   2.0000      -0.436018       -11.8646
 102   2.0000      -0.435955       -11.8629
 103   2.0000      -0.428078       -11.6486
 104   2.0000      -0.426523       -11.6063
 105   2.0000      -0.424368       -11.5476
 106   2.0000      -0.424364       -11.5475
 107   2.0000      -0.422505       -11.4970
 108   2.0000      -0.421317       -11.4646
 109   2.0000      -0.420719       -11.4483
 110   2.0000      -0.420416       -11.4401
 111   2.0000      -0.420149       -11.4328
 112   2.0000      -0.419321       -11.4103
 113   2.0000      -0.415796       -11.3144
 114   2.0000      -0.415439       -11.3047
 115   2.0000      -0.409082       -11.1317
 116   2.0000      -0.408715       -11.1217
 117   2.0000      -0.395888       -10.7727
 118   2.0000      -0.392718       -10.6864
 119   2.0000      -0.382774       -10.4158
 120   2.0000      -0.381972       -10.3940
 121   2.0000      -0.376831       -10.2541
 122   2.0000      -0.372783       -10.1439
 123   2.0000      -0.369067       -10.0428
 124   2.0000      -0.366850        -9.9825
 125   2.0000      -0.363350        -9.8873
 126   2.0000      -0.363251        -9.8846
 127   2.0000      -0.361358        -9.8330
 128   2.0000      -0.361070        -9.8252
 129   2.0000      -0.357990        -9.7414
 130   2.0000      -0.355788        -9.6815
 131   2.0000      -0.355368        -9.6700
 132   2.0000      -0.351971        -9.5776
 133   2.0000      -0.350582        -9.5398
 134   2.0000      -0.350284        -9.5317
 135   2.0000      -0.342283        -9.3140
 136   2.0000      -0.340262        -9.2590
 137   2.0000      -0.332721        -9.0538
 138   2.0000      -0.331128        -9.0105
 139   2.0000      -0.330957        -9.0058
 140   2.0000      -0.327128        -8.9016
 141   2.0000      -0.326113        -8.8740
 142   2.0000      -0.323896        -8.8137
 143   2.0000      -0.323711        -8.8086
 144   2.0000      -0.323639        -8.8067
 145   2.0000      -0.321141        -8.7387
 146   2.0000      -0.321009        -8.7351
 147   2.0000      -0.320059        -8.7092
 148   2.0000      -0.319440        -8.6924
 149   2.0000      -0.317971        -8.6524
 150   2.0000      -0.314789        -8.5658
 151   2.0000      -0.296327        -8.0635
 152   2.0000      -0.274537        -7.4705
 153   2.0000      -0.267137        -7.2692
 154   2.0000      -0.267037        -7.2664
 155   2.0000      -0.264646        -7.2014
 156   2.0000      -0.258183        -7.0255
 157   2.0000      -0.258183        -7.0255
 158   2.0000      -0.246937        -6.7195
 159   2.0000      -0.241346        -6.5674
 160   2.0000      -0.241157        -6.5622
 161   2.0000      -0.216829        -5.9002
 162   2.0000      -0.191451        -5.2096
 163   0.0000      -0.073016        -1.9869
 164   0.0000      -0.046929        -1.2770
 165   0.0000      -0.016546        -0.4502
 166   0.0000      -0.013356        -0.3634
 167   0.0000      -0.013356        -0.3634

MULLIKEN ATOMIC CHARGES
-----------------------
   0 C :   -0.434137
   1 C :    0.521368
   2 C :    0.248519
   3 C :   -0.412594
   4 C :    0.556205
   5 C :    0.250264
   6 C :   -0.394727
   7 H :    0.133005
   8 H :    0.132559
   9 C :   -0.338416
  10 H :    0.148065
  11 H :    0.147901
  12 C :   -0.273663
  13 H :    0.138730
  14 H :    0.138654
  15 C :   -0.247046
  16 H :    0.140101
  17 H :    0.140069
  18 C :   -0.510793
  19 H :    0.157659
  20 H :    0.157675
  21 C :   -0.360688
  22 H :    0.149193
  23 H :    0.149210
  24 C :   -0.258477
  25 H :    0.137557
  26 H :    0.137634
  27 C :   -0.259027
  28 H :    0.141494
  29 H :    0.141516
  30 C :   -0.506286
  31 H :    0.156779
  32 H :    0.156756
  33 C :   -0.291454
  34 H :    0.142202
  35 H :    0.142783
  36 C :    0.588828
  37 C :   -0.282153
  38 C :   -0.097803
  39 C :   -0.120853
  40 C :   -0.101835
  41 C :   -0.273917
  42 H :    0.105193
  43 H :    0.104708
  44 H :    0.118726
  45 H :    0.118063
  46 H :    0.104741
  47 C :   -0.442108
  48 C :   -0.442528
  49 C :   -0.433278
  50 C :    0.521539
  51 C :    0.248752
  52 C :   -0.412725
  53 C :    0.555488
  54 C :    0.250166
  55 C :   -0.394683
  56 H :    0.133012
  57 H :    0.132555
  58 C :   -0.338534
  59 H :    0.147868
  60 H :    0.148097
  61 C :   -0.273681
  62 H :    0.138655
  63 H :    0.138732
  64 C :   -0.247002
  65 H :    0.140082
  66 H :    0.140088
  67 C :   -0.510782
  68 H :    0.157676
  69 H :    0.157658
  70 C :   -0.360630
  71 H :    0.149286
  72 H :    0.149113
  73 C :   -0.258479
  74 H :    0.137644
  75 H :    0.137549
  76 C :   -0.259039
  77 H :    0.141521
  78 H :    0.141489
  79 C :   -0.506280
  80 H :    0.156747
  81 H :    0.156787
  82 C :   -0.291687
  83 H :    0.142193
  84 H :    0.142781
  85 C :    0.588827
  86 C :   -0.282210
  87 C :   -0.097775
  88 C :   -0.120840
  89 C :   -0.101831
  90 C :   -0.273908
  91 H :    0.105177
  92 H :    0.104704
  93 H :    0.118726
  94 H :    0.118065
  95 H :    0.104738
Sum of atomic charges:   -0.0000000

LOEWDIN ATOMIC CHARGES
----------------------
   0 C :   -0.028191
   1 C :   -0.067826
   2 C :   -0.044589
   3 C :   -0.009480
   4 C :   -0.067562
   5 C :   -0.044885
   6 C :   -0.009924
   7 H :    0.062216
   8 H :    0.062032
   9 C :   -0.048103
  10 H :    0.061123
  11 H :    0.061139
  12 C :   -0.085078
  13 H :    0.046931
  14 H :    0.046911
  15 C :   -0.096046
  16 H :    0.043262
  17 H :    0.043261
  18 C :   -0.085488
  19 H :    0.036413
  20 H :    0.036413
  21 C :   -0.048304
  22 H :    0.061078
  23 H :    0.061087
  24 C :   -0.084590
  25 H :    0.046720
  26 H :    0.046745
  27 C :   -0.096665
  28 H :    0.043422
  29 H :    0.043423
  30 C :   -0.085253
  31 H :    0.036315
  32 H :    0.036314
  33 C :   -0.035697
  34 H :    0.033789
  35 H :    0.033858
  36 C :   -0.073534
  37 C :   -0.017324
  38 C :   -0.045438
  39 C :   -0.045749
  40 C :   -0.045839
  41 C :   -0.017737
  42 H :    0.051491
  43 H :    0.052637
  44 H :    0.058385
  45 H :    0.058082
  46 H :    0.052727
  47 C :   -0.032474
  48 C :   -0.032474
  49 C :   -0.028190
  50 C :   -0.067826
  51 C :   -0.044589
  52 C :   -0.009479
  53 C :   -0.067564
  54 C :   -0.044887
  55 C :   -0.009924
  56 H :    0.062217
  57 H :    0.062032
  58 C :   -0.048103
  59 H :    0.061136
  60 H :    0.061127
  61 C :   -0.085078
  62 H :    0.046909
  63 H :    0.046932
  64 C :   -0.096045
  65 H :    0.043262
  66 H :    0.043260
  67 C :   -0.085488
  68 H :    0.036413
  69 H :    0.036413
  70 C :   -0.048304
  71 H :    0.061083
  72 H :    0.061081
  73 C :   -0.084590
  74 H :    0.046748
  75 H :    0.046717
  76 C :   -0.096665
  77 H :    0.043424
  78 H :    0.043421
  79 C :   -0.085253
  80 H :    0.036314
  81 H :    0.036315
  82 C :   -0.035696
  83 H :    0.033789
  84 H :    0.033858
  85 C :   -0.073534
  86 C :   -0.017326
  87 C :   -0.045438
  88 C :   -0.045749
  89 C :   -0.045838
  90 C :   -0.017735
  91 H :    0.051491
  92 H :    0.052637
  93 H :    0.058384
  94 H :    0.058082
  95 H :    0.052727

  Mayer bond orders larger than 0.100000
B(  0-C ,  4-C ) :   0.7467 B(  0-C , 33-C ) :   2.4525 B(  1-C ,  2-C ) :   1.4179
B(  1-C ,  3-C ) :   0.1290 B(  1-C ,  5-C ) :   0.1117 B(  1-C ,  6-C ) :   1.4567
B(  1-C , 47-C ) :   0.7333 B(  2-C ,  3-C ) :   1.4208 B(  2-C ,  9-C ) :   0.9775
B(  3-C ,  4-C ) :   1.4247 B(  3-C ,  7-H ) :   0.9660 B(  4-C ,  5-C ) :   1.4095
B(  4-C ,  6-C ) :   0.1080 B(  5-C ,  6-C ) :   1.4251 B(  5-C , 21-C ) :   0.9554
B(  6-C ,  8-H ) :   0.9679 B(  9-C , 10-H ) :   0.9524 B(  9-C , 11-H ) :   0.9529
B(  9-C , 12-C ) :   1.0280 B( 12-C , 13-H ) :   0.9617 B( 12-C , 14-H ) :   0.9615
B( 12-C , 15-C ) :   0.9902 B( 15-C , 16-H ) :   0.9700 B( 15-C , 17-H ) :   0.9699
B( 15-C , 18-C ) :   0.9543 B( 18-C , 19-H ) :   0.9737 B( 18-C , 20-H ) :   0.9737
B( 18-C , 34-H ) :   0.9667 B( 21-C , 22-H ) :   0.9576 B( 21-C , 23-H ) :   0.9579
B( 21-C , 24-C ) :   1.0252 B( 24-C , 25-H ) :   0.9600 B( 24-C , 26-H ) :   0.9601
B( 24-C , 27-C ) :   0.9877 B( 27-C , 28-H ) :   0.9719 B( 27-C , 29-H ) :   0.9720
B( 27-C , 30-C ) :   0.9554 B( 30-C , 31-H ) :   0.9726 B( 30-C , 32-H ) :   0.9726
B( 30-C , 35-H ) :   0.9680 B( 33-C , 36-C ) :   1.0157 B( 36-C , 37-C ) :   1.3919
B( 36-C , 38-C ) :   0.1015 B( 36-C , 41-C ) :   1.3862 B( 37-C , 38-C ) :   1.4768
B( 37-C , 39-C ) :   0.1001 B( 37-C , 44-H ) :   0.9824 B( 38-C , 39-C ) :   1.4523
B( 38-C , 46-H ) :   0.9765 B( 39-C , 40-C ) :   1.4546 B( 39-C , 41-C ) :   0.1011
B( 39-C , 42-H ) :   0.9660 B( 40-C , 41-C ) :   1.4764 B( 40-C , 43-H ) :   0.9774
B( 41-C , 45-H ) :   0.9807 B( 47-C , 48-C ) :   2.1824 B( 48-C , 50-C ) :   0.7332
B( 49-C , 53-C ) :   0.7471 B( 49-C , 82-C ) :   2.4529 B( 50-C , 51-C ) :   1.4180
B( 50-C , 52-C ) :   0.1294 B( 50-C , 54-C ) :   0.1114 B( 50-C , 55-C ) :   1.4565
B( 51-C , 52-C ) :   1.4206 B( 51-C , 58-C ) :   0.9776 B( 52-C , 53-C ) :   1.4247
B( 52-C , 56-H ) :   0.9661 B( 53-C , 54-C ) :   1.4099 B( 53-C , 55-C ) :   0.1081
B( 54-C , 55-C ) :   1.4252 B( 54-C , 70-C ) :   0.9553 B( 55-C , 57-H ) :   0.9679
B( 58-C , 59-H ) :   0.9528 B( 58-C , 60-H ) :   0.9525 B( 58-C , 61-C ) :   1.0281
B( 61-C , 62-H ) :   0.9615 B( 61-C , 63-H ) :   0.9617 B( 61-C , 64-C ) :   0.9902
B( 64-C , 65-H ) :   0.9699 B( 64-C , 66-H ) :   0.9699 B( 64-C , 67-C ) :   0.9543
B( 67-C , 68-H ) :   0.9737 B( 67-C , 69-H ) :   0.9737 B( 67-C , 83-H ) :   0.9667
B( 70-C , 71-H ) :   0.9578 B( 70-C , 72-H ) :   0.9577 B( 70-C , 73-C ) :   1.0252
B( 73-C , 74-H ) :   0.9600 B( 73-C , 75-H ) :   0.9600 B( 73-C , 76-C ) :   0.9877
B( 76-C , 77-H ) :   0.9719 B( 76-C , 78-H ) :   0.9719 B( 76-C , 79-C ) :   0.9554
B( 79-C , 80-H ) :   0.9726 B( 79-C , 81-H ) :   0.9726 B( 79-C , 84-H ) :   0.9680
B( 82-C , 85-C ) :   1.0156 B( 85-C , 86-C ) :   1.3920 B( 85-C , 87-C ) :   0.1015
B( 85-C , 90-C ) :   1.3862 B( 86-C , 87-C ) :   1.4768 B( 86-C , 88-C ) :   0.1002
B( 86-C , 93-H ) :   0.9825 B( 87-C , 88-C ) :   1.4523 B( 87-C , 95-H ) :   0.9765
B( 88-C , 89-C ) :   1.4546 B( 88-C , 90-C ) :   0.1011 B( 88-C , 91-H ) :   0.9660
B( 89-C , 90-C ) :   1.4764 B( 89-C , 92-H ) :   0.9774 B( 90-C , 94-H ) :   0.9807

FINAL SINGLE POINT ENERGY     -1781.943273225996

DIPOLE MOMENT
-------------
                                X             Y             Z
Electronic contribution:      0.00005       0.00032      -0.00833
Nuclear contribution   :     -0.00002      -0.00033       0.00809
                        -----------------------------------------
Total Dipole Moment    :      0.00002      -0.00002      -0.00023
                        -----------------------------------------
Magnitude (a.u.)       :      0.00023
Magnitude (Debye)      :      0.00059

Rotational constants in cm-1:     0.003050     0.000701     0.000571
Rotational constants in MHz :    91.435861    21.005645    17.110567

CHEMICAL SHIELDING SUMMARY (ppm)
--------------------------------

  Nucleus  Element    Isotropic     Anisotropy
  -------  -------  ------------   ------------
      7       H           24.236         13.529
      8       H           24.193         13.624
     10       H           28.642          6.270
     11       H           28.643          6.265
     13       H           29.898          5.172
     14       H           29.897          5.179
     16       H           30.014          6.533
     17       H           30.013          6.541
     19       H           30.641          8.216
     20       H           30.641          8.215
     22       H           28.654          6.371
     23       H           28.656          6.359
     25       H           29.923          5.227
     26       H           29.925          5.219
     28       H           30.028          6.655
     29       H           30.028          6.654
     31       H           30.649          7.675
     32       H           30.649          7.676
     34       H           30.429         10.191
     35       H           30.422         10.556
     42       H           24.304          4.508
     43       H           24.288          5.647
     44       H           24.010          8.212
     45       H           23.986          8.357
     46       H           24.272          5.353
     56       H           24.236         13.529
     57       H           24.193         13.624
     59       H           28.644          6.265
     60       H           28.642          6.271
     62       H           29.897          5.179
     63       H           29.898          5.173
     65       H           30.014          6.537
     66       H           30.014          6.538
     68       H           30.640          8.215
     69       H           30.640          8.214
     71       H           28.655          6.354
     72       H           28.654          6.376
     74       H           29.925          5.215
     75       H           29.924          5.231
     77       H           30.027          6.652
     78       H           30.027          6.657
     80       H           30.650          7.678
     81       H           30.649          7.673
     83       H           30.430         10.189
     84       H           30.421         10.557
     91       H           24.304          4.507
     92       H           24.288          5.647
     93       H           24.010          8.211
     94       H           23.985          8.357
     95       H           24.272          5.352

                             ****ORCA TERMINATED NORMALLY****
TOTAL RUN TIME: 0 days 0 hours 9 minutes 10 seconds 110 msec
