                         Program Version 5.0.4 -  RELEASE  -
|  1> ! B3LYP cc-pVDZ OPT
|  2> %pal nprocs 16 end
|  3> *XYZFile 0 1 model.xyz
|  4>
|  5>                          ****END OF INPUT****
 Total Charge           Charge          ....    0
 Multiplicity           Mult            ....    1
 Number of Electrons    NEL             ....  326
FINAL SINGLE POINT ENERGY     -1781.802870549424
FINAL SINGLE POINT ENERGY     -1781.802878369508
FINAL SINGLE POINT ENERGY     -1781.802878598105
FINAL SINGLE POINT ENERGY     -1781.802879305624
                    ***********************HURRAY********************

CARTESIAN COORDINATES (ANGSTROEM)
---------------------------------
  C      5.589420    0.070494    0.000323
  C      1.354301   -0.004021    0.001196
  C      2.077945   -1.227820    0.007689
  C      3.469512   -1.152791    0.007131
  C      4.163016    0.077262    0.000380
  C      3.439788    1.301059   -0.006152
  C      2.048304    1.226133   -0.005582
  H      4.064131   -2.066154    0.011995
  H      1.453927    2.139663   -0.010423
  C      1.327068   -2.545299    0.015085
  H      0.649770   -2.560445   -0.858829
  H      0.651130   -2.551360    0.890169
  C      2.169133   -3.823744    0.021064
  H      2.832052   -3.841510   -0.863622
  H      2.833574   -3.832344    0.904737
  C      1.310358   -5.094424    0.028430
  H      0.644664   -5.078197    0.911385
  H      0.642923   -5.087221   -0.853327
  C      2.138719   -6.381672    0.034221
  H      2.790992   -6.434047    0.923079
  H      2.788685   -6.443530   -0.855716
  C      4.190583    2.618750   -0.013465
  H      4.867852    2.634114    0.860458
  H      4.866392    2.625255   -0.888634
  C      3.347619    3.896623   -0.019206
  H      2.683120    3.904644   -0.902840
  H      2.684763    3.913549    0.865542
  C      4.204462    5.168565   -0.026450
  H      4.871909    5.162381    0.855303
  H      4.869955    5.153678   -0.909575
  C      3.373807    6.454377   -0.031892
  H      2.723860    6.514952    0.858165
  H      2.721293    6.505760   -0.920647
  C      6.812027    0.055992   -0.001076
  H      1.495387   -7.276532    0.039834
  H      4.015531    7.350393   -0.037454
  C      8.239600    0.035628   -0.001211
  C      8.941501   -1.189921    0.003875
  C     10.335909   -1.205056    0.003839
  C     11.056317   -0.005132   -0.001284
  C     10.370981    1.215245   -0.006398
  C      8.976796    1.240323   -0.006394
  H     12.148719   -0.021001   -0.001290
  H     10.927851    2.155405   -0.010410
  H      8.377633   -2.124631    0.007864
  H      8.440408    2.191098   -0.010356
  H     10.865375   -2.160908    0.007840
  C     -0.071356    0.002038    0.001357
  C     -1.295231    0.012179    0.004436
  C     -6.956006   -0.056313    0.004008
  C     -2.720887    0.018228    0.004234
  C     -3.444538    1.242028   -0.001212
  C     -4.836104    1.166992   -0.000988
  C     -5.529601   -0.063073    0.004316
  C     -4.806365   -1.286870    0.009784
  C     -3.414882   -1.211937    0.009590
  H     -5.430729    2.080355   -0.005034
  H     -2.820499   -2.125468    0.013613
  C     -2.693666    2.559518   -0.007117
  H     -2.017607    2.566502   -0.882100
  H     -2.016489    2.573745    0.866906
  C     -3.535735    3.837965   -0.011861
  H     -4.200060    3.847496   -0.895612
  H     -4.198772    3.854792    0.872756
  C     -2.676964    5.108655   -0.017780
  H     -2.009586    5.100490    0.864012
  H     -2.011214    5.093396   -0.900709
  C     -3.505330    6.395906   -0.022218
  H     -4.155308    6.456818    0.867775
  H     -4.157591    6.449220   -0.911029
  C     -5.557159   -2.604571    0.015546
  H     -6.233055   -2.612075    0.890639
  H     -6.234338   -2.618941   -0.858464
  C     -4.714192   -3.882447    0.019923
  H     -4.051222   -3.898343   -0.864759
  H     -4.049807   -3.891493    0.903632
  C     -5.571032   -5.154399    0.025593
  H     -6.236578   -5.140572    0.908696
  H     -6.238426   -5.147162   -0.856192
  C     -4.740375   -6.440215    0.029548
  H     -4.087859   -6.492622    0.918242
  H     -4.090428   -6.499763   -0.860579
  C     -8.178610   -0.041628    0.002350
  H     -2.862001    7.290773   -0.026876
  H     -5.382096   -7.336239    0.034081
  C     -9.606184   -0.021301    0.001711
  C    -10.308126    1.204228   -0.002091
  C    -11.702534    1.219316   -0.002679
  C    -12.422902    0.019362    0.000481
  C    -11.737525   -1.200999    0.004243
  C    -10.343340   -1.226029    0.004847
  H    -13.515305    0.035192    0.000002
  H    -12.294362   -2.141183    0.006710
  H     -9.744292    2.138965   -0.004547
  H     -9.806920   -2.176790    0.007751
  H    -12.232030    2.175155   -0.005632

 Multiplicity           Mult            ....    1
 Number of Electrons    NEL             ....  326
 Basis Dimension        Dim             ....  894

ORBITAL ENERGIES
----------------

  NO   OCC          E(Eh)            E(eV)
   0   2.0000     -10.215347      -277.9737
   1   2.0000     -10.215345      -277.9737
   2   2.0000     -10.209335      -277.8101
   3   2.0000     -10.209298      -277.8091
   4   2.0000     -10.209293      -277.8090
   5   2.0000     -10.209271      -277.8084
   6   2.0000     -10.198198      -277.5071
   7   2.0000     -10.198197      -277.5071
   8   2.0000     -10.198049      -277.5030
   9   2.0000     -10.198045      -277.5029
  10   2.0000     -10.196090      -277.4497
  11   2.0000     -10.196089      -277.4497
  12   2.0000     -10.195940      -277.4456
  13   2.0000     -10.195939      -277.4456
  14   2.0000     -10.194995      -277.4199
  15   2.0000     -10.194995      -277.4199
  16   2.0000     -10.194489      -277.4062
  17   2.0000     -10.194489      -277.4062
  18   2.0000     -10.194273      -277.4003
  19   2.0000     -10.194273      -277.4003
  20   2.0000     -10.188719      -277.2491
  21   2.0000     -10.188714      -277.2490
  22   2.0000     -10.188654      -277.2474
  23   2.0000     -10.188652      -277.2473
  24   2.0000     -10.188102      -277.2323
  25   2.0000     -10.188101      -277.2323
  26   2.0000     -10.187458      -277.2148
  27   2.0000     -10.186083      -277.1774
  28   2.0000     -10.186083      -277.1774
  29   2.0000     -10.185519      -277.1621
  30   2.0000     -10.185518      -277.1620
  31   2.0000     -10.185493      -277.1614
  32   2.0000     -10.185175      -277.1527
  33   2.0000     -10.185174      -277.1527
  34   2.0000     -10.181702      -277.0582
  35   2.0000     -10.181702      -277.0582
  36   2.0000     -10.181250      -277.0459
  37   2.0000     -10.181250      -277.0459
  38   2.0000     -10.181199      -277.0445
  39   2.0000     -10.181199      -277.0445
  40   2.0000     -10.180747      -277.0322
  41   2.0000     -10.180747      -277.0322
  42   2.0000     -10.175763      -276.8966
  43   2.0000     -10.175763      -276.8966
  44   2.0000     -10.175258      -276.8828
  45   2.0000     -10.175258      -276.8828
  46   2.0000      -0.872031       -23.7292
  47   2.0000      -0.870139       -23.6777
  48   2.0000      -0.862208       -23.4619
  49   2.0000      -0.862140       -23.4600
  50   2.0000      -0.817882       -22.2557
  51   2.0000      -0.814606       -22.1665
  52   2.0000      -0.797599       -21.7038
  53   2.0000      -0.794905       -21.6305
  54   2.0000      -0.794719       -21.6254
  55   2.0000      -0.790973       -21.5235
  56   2.0000      -0.778393       -21.1812
  57   2.0000      -0.773538       -21.0490
  58   2.0000      -0.764316       -20.7981
  59   2.0000      -0.762553       -20.7501
  60   2.0000      -0.749970       -20.4077
  61   2.0000      -0.749970       -20.4077
  62   2.0000      -0.742484       -20.2040
  63   2.0000      -0.732361       -19.9286
  64   2.0000      -0.727889       -19.8069
  65   2.0000      -0.719247       -19.5717
  66   2.0000      -0.706544       -19.2260
  67   2.0000      -0.697943       -18.9920
  68   2.0000      -0.695078       -18.9140
  69   2.0000      -0.652043       -17.7430
  70   2.0000      -0.651555       -17.7297
  71   2.0000      -0.650678       -17.7058
  72   2.0000      -0.633007       -17.2250
  73   2.0000      -0.621973       -16.9248
  74   2.0000      -0.617951       -16.8153
  75   2.0000      -0.612716       -16.6729
  76   2.0000      -0.609002       -16.5718
  77   2.0000      -0.607986       -16.5441
  78   2.0000      -0.607940       -16.5429
  79   2.0000      -0.591381       -16.0923
  80   2.0000      -0.586292       -15.9538
  81   2.0000      -0.578541       -15.7429
  82   2.0000      -0.578272       -15.7356
  83   2.0000      -0.561726       -15.2853
  84   2.0000      -0.561195       -15.2709
  85   2.0000      -0.538723       -14.6594
  86   2.0000      -0.536726       -14.6051
  87   2.0000      -0.515255       -14.0208
  88   2.0000      -0.505118       -13.7450
  89   2.0000      -0.504764       -13.7353
  90   2.0000      -0.490141       -13.3374
  91   2.0000      -0.478163       -13.0115
  92   2.0000      -0.476450       -12.9649
  93   2.0000      -0.475732       -12.9453
  94   2.0000      -0.471885       -12.8406
  95   2.0000      -0.470238       -12.7958
  96   2.0000      -0.470088       -12.7917
  97   2.0000      -0.469017       -12.7626
  98   2.0000      -0.468975       -12.7615
  99   2.0000      -0.456629       -12.4255
 100   2.0000      -0.456573       -12.4240
 101   2.0000      -0.435026       -11.8377
 102   2.0000      -0.434977       -11.8363
 103   2.0000      -0.428264       -11.6537
 104   2.0000      -0.426857       -11.6154
 105   2.0000      -0.423268       -11.5177
 106   2.0000      -0.423262       -11.5176
 107   2.0000      -0.422978       -11.5098
 108   2.0000      -0.422213       -11.4890
 109   2.0000      -0.421751       -11.4764
 110   2.0000      -0.421627       -11.4731
 111   2.0000      -0.421577       -11.4717
 112   2.0000      -0.420920       -11.4538
 113   2.0000      -0.416087       -11.3223
 114   2.0000      -0.415734       -11.3127
 115   2.0000      -0.409909       -11.1542
 116   2.0000      -0.409483       -11.1426
 117   2.0000      -0.396944       -10.8014
 118   2.0000      -0.393840       -10.7169
 119   2.0000      -0.383219       -10.4279
 120   2.0000      -0.382400       -10.4056
 121   2.0000      -0.377345       -10.2681
 122   2.0000      -0.373323       -10.1586
 123   2.0000      -0.369955       -10.0670
 124   2.0000      -0.367745       -10.0068
 125   2.0000      -0.364488        -9.9182
 126   2.0000      -0.364400        -9.9158
 127   2.0000      -0.360605        -9.8126
 128   2.0000      -0.360104        -9.7989
 129   2.0000      -0.358332        -9.7507
 130   2.0000      -0.356129        -9.6908
 131   2.0000      -0.355858        -9.6834
 132   2.0000      -0.352374        -9.5886
 133   2.0000      -0.349407        -9.5078
 134   2.0000      -0.349318        -9.5054
 135   2.0000      -0.342571        -9.3218
 136   2.0000      -0.340553        -9.2669
 137   2.0000      -0.332980        -9.0608
 138   2.0000      -0.332572        -9.0498
 139   2.0000      -0.332450        -9.0464
 140   2.0000      -0.328041        -8.9264
 141   2.0000      -0.326911        -8.8957
 142   2.0000      -0.325306        -8.8520
 143   2.0000      -0.325119        -8.8469
 144   2.0000      -0.324321        -8.8252
 145   2.0000      -0.321992        -8.7618
 146   2.0000      -0.321766        -8.7557
 147   2.0000      -0.320896        -8.7320
 148   2.0000      -0.320839        -8.7305
 149   2.0000      -0.319393        -8.6911
 150   2.0000      -0.315007        -8.5718
 151   2.0000      -0.296384        -8.0650
 152   2.0000      -0.274574        -7.4715
 153   2.0000      -0.266689        -7.2570
 154   2.0000      -0.266543        -7.2530
 155   2.0000      -0.264714        -7.2032
 156   2.0000      -0.257812        -7.0154
 157   2.0000      -0.257812        -7.0154
 158   2.0000      -0.246863        -6.7175
 159   2.0000      -0.241752        -6.5784
 160   2.0000      -0.241468        -6.5707
 161   2.0000      -0.216484        -5.8908
 162   2.0000      -0.191147        -5.2014
 163   0.0000      -0.072208        -1.9649
 164   0.0000      -0.045374        -1.2347
 165   0.0000      -0.014296        -0.3890
 166   0.0000      -0.009453        -0.2572
 167   0.0000      -0.009453        -0.2572

MULLIKEN ATOMIC CHARGES
-----------------------
   0 C :    0.276019
   1 C :   -0.176682
   2 C :   -0.079232
   3 C :    0.006278
   4 C :   -0.159830
   5 C :   -0.077290
   6 C :    0.000366
   7 H :   -0.056894
   8 H :   -0.056339
   9 C :    0.038035
  10 H :    0.032143
  11 H :    0.032142
  12 C :   -0.032978
  13 H :    0.015877
  14 H :    0.015928
  15 C :   -0.024422
  16 H :    0.005310
  17 H :    0.005308
  18 C :    0.004093
  19 H :    0.016847
  20 H :    0.016865
  21 C :    0.040305
  22 H :    0.031118
  23 H :    0.031125
  24 C :   -0.034471
  25 H :    0.015884
  26 H :    0.015831
  27 C :   -0.023758
  28 H :    0.005259
  29 H :    0.005266
  30 C :    0.003888
  31 H :    0.016765
  32 H :    0.016746
  33 C :    0.121808
  34 H :    0.012265
  35 H :    0.012349
  36 C :   -0.256051
  37 C :    0.030538
  38 C :    0.040755
  39 C :    0.033100
  40 C :    0.040448
  41 C :    0.028374
  42 H :   -0.027908
  43 H :   -0.027982
  44 H :   -0.040773
  45 H :   -0.040160
  46 H :   -0.027808
  47 C :    0.175685
  48 C :    0.175542
  49 C :    0.276031
  50 C :   -0.176815
  51 C :   -0.079206
  52 C :    0.006207
  53 C :   -0.159803
  54 C :   -0.077265
  55 C :    0.000366
  56 H :   -0.056892
  57 H :   -0.056338
  58 C :    0.038032
  59 H :    0.032143
  60 H :    0.032141
  61 C :   -0.032973
  62 H :    0.015928
  63 H :    0.015877
  64 C :   -0.024412
  65 H :    0.005310
  66 H :    0.005308
  67 C :    0.004081
  68 H :    0.016866
  69 H :    0.016846
  70 C :    0.040300
  71 H :    0.031120
  72 H :    0.031124
  73 C :   -0.034461
  74 H :    0.015833
  75 H :    0.015882
  76 C :   -0.023763
  77 H :    0.005265
  78 H :    0.005259
  79 C :    0.003891
  80 H :    0.016744
  81 H :    0.016766
  82 C :    0.121759
  83 H :    0.012265
  84 H :    0.012348
  85 C :   -0.256045
  86 C :    0.030575
  87 C :    0.040750
  88 C :    0.033101
  89 C :    0.040454
  90 C :    0.028349
  91 H :   -0.027908
  92 H :   -0.027980
  93 H :   -0.040771
  94 H :   -0.040161
  95 H :   -0.027809
Sum of atomic charges:   -0.0000000

LOEWDIN ATOMIC CHARGES
----------------------
   0 C :   -0.016656
   1 C :   -0.051235
   2 C :   -0.007576
   3 C :   -0.005896
   4 C :   -0.051029
   5 C :   -0.007832
   6 C :   -0.006795
   7 H :    0.028550
   8 H :    0.028579
   9 C :   -0.034661
  10 H :    0.038294
  11 H :    0.038310
  12 C :   -0.043591
  13 H :    0.024255
  14 H :    0.024253
  15 C :   -0.047218
  16 H :    0.023813
  17 H :    0.023814
  18 C :   -0.067593
  19 H :    0.025114
  20 H :    0.025117
  21 C :   -0.034554
  22 H :    0.038242
  23 H :    0.038256
  24 C :   -0.043689
  25 H :    0.024132
  26 H :    0.024137
  27 C :   -0.047178
  28 H :    0.023831
  29 H :    0.023833
  30 C :   -0.067594
  31 H :    0.025055
  32 H :    0.025051
  33 C :   -0.023908
  34 H :    0.027302
  35 H :    0.027340
  36 C :   -0.053323
  37 C :   -0.001473
  38 C :   -0.023884
  39 C :   -0.021753
  40 C :   -0.024070
  41 C :   -0.002440
  42 H :    0.027991
  43 H :    0.029170
  44 H :    0.029990
  45 H :    0.029840
  46 H :    0.029265
  47 C :   -0.019593
  48 C :   -0.019581
  49 C :   -0.016653
  50 C :   -0.051232
  51 C :   -0.007574
  52 C :   -0.005895
  53 C :   -0.051028
  54 C :   -0.007834
  55 C :   -0.006793
  56 H :    0.028551
  57 H :    0.028579
  58 C :   -0.034660
  59 H :    0.038304
  60 H :    0.038299
  61 C :   -0.043591
  62 H :    0.024252
  63 H :    0.024256
  64 C :   -0.047218
  65 H :    0.023815
  66 H :    0.023812
  67 C :   -0.067594
  68 H :    0.025117
  69 H :    0.025113
  70 C :   -0.034554
  71 H :    0.038253
  72 H :    0.038244
  73 C :   -0.043688
  74 H :    0.024139
  75 H :    0.024130
  76 C :   -0.047178
  77 H :    0.023833
  78 H :    0.023831
  79 C :   -0.067594
  80 H :    0.025051
  81 H :    0.025055
  82 C :   -0.023913
  83 H :    0.027302
  84 H :    0.027340
  85 C :   -0.053324
  86 C :   -0.001475
  87 C :   -0.023884
  88 C :   -0.021753
  89 C :   -0.024070
  90 C :   -0.002439
  91 H :    0.027991
  92 H :    0.029170
  93 H :    0.029990
  94 H :    0.029840
  95 H :    0.029265

  Mayer bond orders larger than 0.100000
B(  0-C ,  4-C ) :   0.8823 B(  0-C , 33-C ) :   1.7440 B(  0-C , 36-C ) :  -0.1788
B(  1-C ,  2-C ) :   1.4042 B(  1-C ,  6-C ) :   1.3763 B(  1-C , 47-C ) :   0.8897
B(  1-C , 48-C ) :  -0.1348 B(  1-C , 50-C ) :   0.1090 B(  2-C ,  3-C ) :   1.4402
B(  2-C ,  9-C ) :   1.0958 B(  3-C ,  4-C ) :   1.3760 B(  3-C ,  7-H ) :   0.9199
B(  4-C ,  5-C ) :   1.3991 B(  5-C ,  6-C ) :   1.4399 B(  5-C , 21-C ) :   1.0941
B(  6-C ,  8-H ) :   0.9210 B(  9-C , 10-H ) :   0.8961 B(  9-C , 11-H ) :   0.8963
B(  9-C , 12-C ) :   1.1050 B( 12-C , 13-H ) :   0.9291 B( 12-C , 14-H ) :   0.9291
B( 12-C , 15-C ) :   1.0747 B( 15-C , 16-H ) :   0.9410 B( 15-C , 17-H ) :   0.9410
B( 15-C , 18-C ) :   1.1061 B( 18-C , 19-H ) :   0.9662 B( 18-C , 20-H ) :   0.9662
B( 18-C , 34-H ) :   0.9617 B( 21-C , 22-H ) :   0.8969 B( 21-C , 23-H ) :   0.8970
B( 21-C , 24-C ) :   1.1050 B( 24-C , 25-H ) :   0.9291 B( 24-C , 26-H ) :   0.9291
B( 24-C , 27-C ) :   1.0749 B( 27-C , 28-H ) :   0.9409 B( 27-C , 29-H ) :   0.9409
B( 27-C , 30-C ) :   1.1061 B( 30-C , 31-H ) :   0.9662 B( 30-C , 32-H ) :   0.9662
B( 30-C , 35-H ) :   0.9617 B( 33-C , 36-C ) :   0.9326 B( 36-C , 37-C ) :   1.4418
B( 36-C , 41-C ) :   1.4385 B( 37-C , 38-C ) :   1.4704 B( 37-C , 44-H ) :   0.9401
B( 38-C , 39-C ) :   1.4440 B( 38-C , 46-H ) :   0.9380 B( 39-C , 40-C ) :   1.4434
B( 39-C , 42-H ) :   0.9433 B( 40-C , 41-C ) :   1.4706 B( 40-C , 43-H ) :   0.9380
B( 41-C , 45-H ) :   0.9405 B( 47-C , 48-C ) :   1.6904 B( 47-C , 50-C ) :  -0.1349
B( 48-C , 50-C ) :   0.8897 B( 49-C , 53-C ) :   0.8823 B( 49-C , 82-C ) :   1.7440
B( 49-C , 85-C ) :  -0.1788 B( 50-C , 51-C ) :   1.4043 B( 50-C , 55-C ) :   1.3764
B( 51-C , 52-C ) :   1.4402 B( 51-C , 58-C ) :   1.0958 B( 52-C , 53-C ) :   1.3760
B( 52-C , 56-H ) :   0.9200 B( 53-C , 54-C ) :   1.3990 B( 54-C , 55-C ) :   1.4400
B( 54-C , 70-C ) :   1.0941 B( 55-C , 57-H ) :   0.9210 B( 58-C , 59-H ) :   0.8963
B( 58-C , 60-H ) :   0.8961 B( 58-C , 61-C ) :   1.1050 B( 61-C , 62-H ) :   0.9291
B( 61-C , 63-H ) :   0.9291 B( 61-C , 64-C ) :   1.0747 B( 64-C , 65-H ) :   0.9410
B( 64-C , 66-H ) :   0.9410 B( 64-C , 67-C ) :   1.1061 B( 67-C , 68-H ) :   0.9662
B( 67-C , 69-H ) :   0.9662 B( 67-C , 83-H ) :   0.9617 B( 70-C , 71-H ) :   0.8969
B( 70-C , 72-H ) :   0.8969 B( 70-C , 73-C ) :   1.1050 B( 73-C , 74-H ) :   0.9291
B( 73-C , 75-H ) :   0.9291 B( 73-C , 76-C ) :   1.0749 B( 76-C , 77-H ) :   0.9409
B( 76-C , 78-H ) :   0.9409 B( 76-C , 79-C ) :   1.1061 B( 79-C , 80-H ) :   0.9662
B( 79-C , 81-H ) :   0.9662 B( 79-C , 84-H ) :   0.9617 B( 82-C , 85-C ) :   0.9326
B( 85-C , 86-C ) :   1.4418 B( 85-C , 90-C ) :   1.4385 B( 86-C , 87-C ) :   1.4704
B( 86-C , 93-H ) :   0.9401 B( 87-C , 88-C ) :   1.4440 B( 87-C , 95-H ) :   0.9380
B( 88-C , 89-C ) :   1.4434 B( 88-C , 91-H ) :   0.9433 B( 89-C , 90-C ) :   1.4706
B( 89-C , 92-H ) :   0.9380 B( 90-C , 94-H ) :   0.9405

FINAL SINGLE POINT ENERGY     -1781.802879480746

DIPOLE MOMENT
-------------
                                X             Y             Z
Electronic contribution:      0.00003       0.00031      -0.00832
Nuclear contribution   :     -0.00002      -0.00033       0.00809
                        -----------------------------------------
Total Dipole Moment    :      0.00000      -0.00003      -0.00023
                        -----------------------------------------
Magnitude (a.u.)       :      0.00023
Magnitude (Debye)      :      0.00058

Rotational constants in cm-1:     0.003050     0.000701     0.000571
Rotational constants in MHz :    91.435861    21.005645    17.110567

                             ****ORCA TERMINATED NORMALLY****
TOTAL RUN TIME: 0 days 0 hours 20 minutes 47 seconds 528 msec
