                         Program Version 5.0.4 -  RELEASE  -
|  1> ! B3LYP EPR-II FREQ
|  2> %pal nprocs 16 end
|  3> *XYZFile 0 4 opt.xyz
|  4>
|  5>                          ****END OF INPUT****

CARTESIAN COORDINATES (ANGSTROEM)
---------------------------------
  C     -2.832372    0.020293   -0.012674
  C      2.815948   -0.003360   -0.008875
  C     -1.420433    0.002453   -0.011651
  C     -0.709375   -1.248719   -0.014317
  C      0.676247   -1.190347   -0.013098
  C      1.395990    0.032013   -0.009547
  C      0.690981    1.274503   -0.006793
  C     -0.695552    1.234643   -0.007923
  H      1.255523   -2.114320   -0.015016
  H     -1.274064    2.157630   -0.005970
  C     -1.489895   -2.544872   -0.018304
  H     -2.165019   -2.534890   -0.894888
  H     -2.166965   -2.539083    0.856814
  C     -0.678575   -3.843149   -0.020503
  H     -0.014665   -3.868142   -0.904151
  H     -0.016787   -3.872413    0.864608
  C     -1.565109   -5.094476   -0.024598
  H     -2.232311   -5.070651    0.856894
  H     -2.230018   -5.066520   -0.907703
  C     -0.764607   -6.399272   -0.026630
  H     -0.116223   -6.472896    0.863534
  H     -0.113640   -6.468533   -0.915256
  C      1.471273    2.575323   -0.002841
  H      2.146769    2.566888    0.872422
  H      2.148153    2.571347   -0.877069
  C      0.658643    3.872512   -0.000192
  H     -0.003508    3.902839   -0.885023
  H     -0.005190    3.898229    0.883519
  C      1.545480    5.123771    0.003914
  H      2.210563    5.095343    0.886947
  H      2.212467    5.099765   -0.877811
  C      0.745911    6.429167    0.006343
  H      0.095138    6.498653    0.895068
  H      0.097365    6.503336   -0.883633
  C      4.039703   -0.047094   -0.010051
  H     -1.427402   -7.279815   -0.029757
  H      1.409174    7.309394    0.009496
  C      5.464853   -0.099872   -0.009745
  C      6.139075   -1.341626   -0.011166
  C      7.532527   -1.388475   -0.010865
  C      8.280425   -0.205272   -0.009185
  C      7.623150    1.030678   -0.007808
  C      6.230136    1.087990   -0.008102
  H      9.372096   -0.246369   -0.008970
  H      8.201473    1.957801   -0.006530
  H      5.554032   -2.263250   -0.012463
  H      5.715792    2.050851   -0.007084
  H      8.040096   -2.356142   -0.011943

 Total Charge           Charge          ....    0
 Multiplicity           Mult            ....    4
 Number of Electrons    NEL             ....  163
 Basis Dimension        Dim             ....  566

ORBITAL ENERGIES
----------------
                 SPIN UP ORBITALS
  NO   OCC          E(Eh)            E(eV)
   0   1.0000     -10.246867      -278.8314
   1   1.0000     -10.232513      -278.4408
   2   1.0000     -10.226978      -278.2902
   3   1.0000     -10.221801      -278.1493
   4   1.0000     -10.212468      -277.8954
   5   1.0000     -10.209075      -277.8030
   6   1.0000     -10.205203      -277.6977
   7   1.0000     -10.205070      -277.6941
   8   1.0000     -10.204828      -277.6875
   9   1.0000     -10.203778      -277.6589
  10   1.0000     -10.203618      -277.6546
  11   1.0000     -10.202565      -277.6259
  12   1.0000     -10.200267      -277.5634
  13   1.0000     -10.199582      -277.5447
  14   1.0000     -10.197825      -277.4969
  15   1.0000     -10.189787      -277.2782
  16   1.0000     -10.187989      -277.2293
  17   1.0000     -10.183608      -277.1101
  18   1.0000     -10.183099      -277.0962
  19   1.0000     -10.182876      -277.0901
  20   1.0000     -10.182537      -277.0809
  21   1.0000     -10.173784      -276.8427
  22   1.0000     -10.173471      -276.8342
  23   1.0000      -0.874741       -23.8029
  24   1.0000      -0.863331       -23.4924
  25   1.0000      -0.818433       -22.2707
  26   1.0000      -0.797254       -21.6944
  27   1.0000      -0.793847       -21.6017
  28   1.0000      -0.778052       -21.1719
  29   1.0000      -0.765260       -20.8238
  30   1.0000      -0.751336       -20.4449
  31   1.0000      -0.735606       -20.0169
  32   1.0000      -0.724314       -19.7096
  33   1.0000      -0.700164       -19.0524
  34   1.0000      -0.674629       -18.3576
  35   1.0000      -0.652367       -17.7518
  36   1.0000      -0.626197       -17.0397
  37   1.0000      -0.615615       -16.7517
  38   1.0000      -0.609519       -16.5858
  39   1.0000      -0.596311       -16.2264
  40   1.0000      -0.579043       -15.7566
  41   1.0000      -0.564604       -15.3636
  42   1.0000      -0.554341       -15.0844
  43   1.0000      -0.535613       -14.5748
  44   1.0000      -0.507760       -13.8169
  45   1.0000      -0.481013       -13.0890
  46   1.0000      -0.478046       -13.0083
  47   1.0000      -0.471602       -12.8329
  48   1.0000      -0.469894       -12.7865
  49   1.0000      -0.457004       -12.4357
  50   1.0000      -0.437927       -11.9166
  51   1.0000      -0.436993       -11.8912
  52   1.0000      -0.425541       -11.5796
  53   1.0000      -0.425303       -11.5731
  54   1.0000      -0.424575       -11.5533
  55   1.0000      -0.422130       -11.4867
  56   1.0000      -0.417516       -11.3612
  57   1.0000      -0.412170       -11.2157
  58   1.0000      -0.409968       -11.1558
  59   1.0000      -0.384917       -10.4741
  60   1.0000      -0.380743       -10.3605
  61   1.0000      -0.377475       -10.2716
  62   1.0000      -0.370033       -10.0691
  63   1.0000      -0.365240        -9.9387
  64   1.0000      -0.361991        -9.8503
  65   1.0000      -0.358868        -9.7653
  66   1.0000      -0.351698        -9.5702
  67   1.0000      -0.345869        -9.4116
  68   1.0000      -0.343338        -9.3427
  69   1.0000      -0.332489        -9.0475
  70   1.0000      -0.330556        -8.9949
  71   1.0000      -0.326437        -8.8828
  72   1.0000      -0.325228        -8.8499
  73   1.0000      -0.322326        -8.7709
  74   1.0000      -0.320893        -8.7320
  75   1.0000      -0.320775        -8.7287
  76   1.0000      -0.291651        -7.9362
  77   1.0000      -0.268608        -7.3092
  78   1.0000      -0.259820        -7.0701
  79   1.0000      -0.250006        -6.8030
  80   1.0000      -0.238292        -6.4843
  81   1.0000      -0.226248        -6.1565
  82   1.0000      -0.181656        -4.9431
  83   0.0000      -0.044160        -1.2017
  84   0.0000      -0.014770        -0.4019
  85   0.0000      -0.005121        -0.1393
  86   0.0000       0.009268         0.2522
  87   0.0000       0.015002         0.4082

                 SPIN DOWN ORBITALS
  NO   OCC          E(Eh)            E(eV)
   0   1.0000     -10.232610      -278.4435
   1   1.0000     -10.227475      -278.3038
   2   1.0000     -10.218307      -278.0543
   3   1.0000     -10.210576      -277.8439
   4   1.0000     -10.208304      -277.7821
   5   1.0000     -10.207993      -277.7736
   6   1.0000     -10.204761      -277.6857
   7   1.0000     -10.204632      -277.6822
   8   1.0000     -10.204351      -277.6745
   9   1.0000     -10.203956      -277.6638
  10   1.0000     -10.203677      -277.6562
  11   1.0000     -10.201889      -277.6075
  12   1.0000     -10.199517      -277.5430
  13   1.0000     -10.199278      -277.5365
  14   1.0000     -10.196087      -277.4496
  15   1.0000     -10.189811      -277.2788
  16   1.0000     -10.187817      -277.2246
  17   1.0000     -10.183559      -277.1087
  18   1.0000     -10.183094      -277.0961
  19   1.0000     -10.182875      -277.0901
  20   1.0000     -10.182536      -277.0809
  21   1.0000     -10.173786      -276.8428
  22   1.0000     -10.173471      -276.8342
  23   1.0000      -0.868111       -23.6225
  24   1.0000      -0.862523       -23.4705
  25   1.0000      -0.813755       -22.1434
  26   1.0000      -0.793997       -21.6058
  27   1.0000      -0.790014       -21.4974
  28   1.0000      -0.772717       -21.0267
  29   1.0000      -0.761966       -20.7342
  30   1.0000      -0.750837       -20.4313
  31   1.0000      -0.731444       -19.9036
  32   1.0000      -0.720006       -19.5924
  33   1.0000      -0.697345       -18.9757
  34   1.0000      -0.651037       -17.7156
  35   1.0000      -0.650038       -17.6884
  36   1.0000      -0.622151       -16.9296
  37   1.0000      -0.613396       -16.6914
  38   1.0000      -0.609197       -16.5771
  39   1.0000      -0.590091       -16.0572
  40   1.0000      -0.578509       -15.7420
  41   1.0000      -0.561293       -15.2736
  42   1.0000      -0.540381       -14.7045
  43   1.0000      -0.515110       -14.0168
  44   1.0000      -0.505421       -13.7532
  45   1.0000      -0.479444       -13.0463
  46   1.0000      -0.471453       -12.8289
  47   1.0000      -0.470894       -12.8137
  48   1.0000      -0.469877       -12.7860
  49   1.0000      -0.456639       -12.4258
  50   1.0000      -0.436769       -11.8851
  51   1.0000      -0.429964       -11.6999
  52   1.0000      -0.425164       -11.5693
  53   1.0000      -0.422298       -11.4913
  54   1.0000      -0.422051       -11.4846
  55   1.0000      -0.421565       -11.4714
  56   1.0000      -0.416908       -11.3446
  57   1.0000      -0.409914       -11.1543
  58   1.0000      -0.398541       -10.8448
  59   1.0000      -0.381759       -10.3882
  60   1.0000      -0.372914       -10.1475
  61   1.0000      -0.368428       -10.0254
  62   1.0000      -0.364594        -9.9211
  63   1.0000      -0.362108        -9.8535
  64   1.0000      -0.357318        -9.7231
  65   1.0000      -0.357214        -9.7203
  66   1.0000      -0.351363        -9.5611
  67   1.0000      -0.340795        -9.2735
  68   1.0000      -0.332347        -9.0436
  69   1.0000      -0.328577        -8.9410
  70   1.0000      -0.325156        -8.8480
  71   1.0000      -0.324901        -8.8410
  72   1.0000      -0.322082        -8.7643
  73   1.0000      -0.319313        -8.6889
  74   1.0000      -0.315264        -8.5788
  75   1.0000      -0.275865        -7.5067
  76   1.0000      -0.268097        -7.2953
  77   1.0000      -0.258415        -7.0318
  78   1.0000      -0.242395        -6.5959
  79   1.0000      -0.220771        -6.0075
  80   0.0000      -0.162963        -4.4345
  81   0.0000      -0.086832        -2.3628
  82   0.0000      -0.036448        -0.9918
  83   0.0000      -0.027875        -0.7585
  84   0.0000      -0.013590        -0.3698

MULLIKEN ATOMIC CHARGES AND SPIN POPULATIONS
--------------------------------------------
   0 C :   -0.438958    2.511200
   1 C :   -0.365192   -0.079777
   2 C :    0.416405   -0.143841
   3 C :    0.319120    0.240578
   4 C :   -0.427045   -0.106032
   5 C :    0.517151    0.214677
   6 C :    0.257239   -0.102100
   7 C :   -0.376414    0.262774
   8 H :    0.131721    0.011877
   9 H :    0.130531   -0.009321
  10 C :   -0.360204    0.002917
  11 H :    0.149398    0.007801
  12 H :    0.149367    0.007799
  13 C :   -0.263256    0.003044
  14 H :    0.139516    0.000158
  15 H :    0.139549    0.000155
  16 C :   -0.254372    0.000229
  17 H :    0.141817    0.000010
  18 H :    0.141822    0.000010
  19 C :   -0.507705   -0.000369
  20 H :    0.157432    0.000018
  21 H :    0.157419    0.000018
  22 C :   -0.349326    0.013257
  23 H :    0.150314   -0.004063
  24 H :    0.150180   -0.004063
  25 C :   -0.264573   -0.001285
  26 H :    0.138718   -0.000044
  27 H :    0.138702   -0.000045
  28 C :   -0.254629    0.000054
  29 H :    0.141249    0.000049
  30 H :    0.141227    0.000049
  31 C :   -0.507506    0.000011
  32 H :    0.157669   -0.000007
  33 H :    0.157679   -0.000007
  34 C :   -0.311914    0.132007
  35 H :    0.143248   -0.000022
  36 H :    0.142303   -0.000007
  37 C :    0.596938   -0.027150
  38 C :   -0.281024    0.035435
  39 C :   -0.096866   -0.018617
  40 C :   -0.121578    0.039967
  41 C :   -0.099935   -0.018596
  42 C :   -0.275005    0.035495
  43 H :    0.105154   -0.002272
  44 H :    0.104151    0.000925
  45 H :    0.117848   -0.001908
  46 H :    0.117471   -0.001911
  47 H :    0.104163    0.000924
Sum of atomic charges         :   -0.0000000

LOEWDIN ATOMIC CHARGES AND SPIN POPULATIONS
-------------------------------------------
   0 C :    0.024961    2.355652
   1 C :   -0.030693   -0.039675
   2 C :   -0.114969    0.067701
   3 C :   -0.048912    0.191506
   4 C :   -0.011199   -0.064056
   5 C :   -0.067261    0.168789
   6 C :   -0.046017   -0.063466
   7 C :   -0.017331    0.198691
   8 H :    0.063649    0.002657
   9 H :    0.061853    0.001638
  10 C :   -0.052583    0.011104
  11 H :    0.061544    0.007913
  12 H :    0.061543    0.007916
  13 C :   -0.083878    0.002503
  14 H :    0.047209    0.000226
  15 H :    0.047221    0.000224
  16 C :   -0.095668    0.000251
  17 H :    0.043628    0.000052
  18 H :    0.043628    0.000052
  19 C :   -0.084671   -0.000025
  20 H :    0.036326    0.000011
  21 H :    0.036325    0.000011
  22 C :   -0.047100    0.002611
  23 H :    0.061335   -0.003134
  24 H :    0.061336   -0.003133
  25 C :   -0.084500    0.000142
  26 H :    0.047044    0.000109
  27 H :    0.047036    0.000109
  28 C :   -0.096280    0.000076
  29 H :    0.043345    0.000005
  30 H :    0.043342    0.000005
  31 C :   -0.084817    0.000019
  32 H :    0.036447   -0.000005
  33 H :    0.036447   -0.000005
  34 C :   -0.033913    0.102648
  35 H :    0.033936   -0.000013
  36 H :    0.033806   -0.000003
  37 C :   -0.073912   -0.014608
  38 C :   -0.017359    0.028438
  39 C :   -0.045297   -0.011350
  40 C :   -0.045465    0.031152
  41 C :   -0.045634   -0.011337
  42 C :   -0.017635    0.028412
  43 H :    0.051463    0.000185
  44 H :    0.052681   -0.000064
  45 H :    0.058253    0.000064
  46 H :    0.057986    0.000066
  47 H :    0.052748   -0.000064

  Mayer bond orders larger than 0.100000
B(  0-C ,  2-C ) :   0.9249 B(  0-C ,  7-C ) :   0.1284 B(  1-C ,  5-C ) :   0.8267
B(  1-C ,  6-C ) :   0.1144 B(  1-C , 34-C ) :   2.4792 B(  2-C ,  3-C ) :   1.3027
B(  2-C ,  4-C ) :   0.1083 B(  2-C ,  6-C ) :   0.1082 B(  2-C ,  7-C ) :   1.3066
B(  3-C ,  4-C ) :   1.4855 B(  3-C ,  5-C ) :   0.1111 B(  3-C , 10-C ) :   0.9326
B(  4-C ,  5-C ) :   1.4018 B(  4-C ,  8-H ) :   0.9714 B(  5-C ,  6-C ) :   1.3356
B(  5-C ,  7-C ) :   0.1391 B(  5-C , 34-C ) :   0.1159 B(  6-C ,  7-C ) :   1.4996
B(  6-C , 22-C ) :   0.9663 B(  7-C ,  9-H ) :   0.9739 B( 10-C , 11-H ) :   0.9602
B( 10-C , 12-H ) :   0.9602 B( 10-C , 13-C ) :   1.0244 B( 13-C , 14-H ) :   0.9616
B( 13-C , 15-H ) :   0.9616 B( 13-C , 16-C ) :   0.9866 B( 16-C , 17-H ) :   0.9711
B( 16-C , 18-H ) :   0.9712 B( 16-C , 19-C ) :   0.9549 B( 19-C , 20-H ) :   0.9727
B( 19-C , 21-H ) :   0.9727 B( 19-C , 35-H ) :   0.9677 B( 22-C , 23-H ) :   0.9551
B( 22-C , 24-H ) :   0.9552 B( 22-C , 25-C ) :   1.0238 B( 25-C , 26-H ) :   0.9608
B( 25-C , 27-H ) :   0.9609 B( 25-C , 28-C ) :   0.9888 B( 28-C , 29-H ) :   0.9714
B( 28-C , 30-H ) :   0.9714 B( 28-C , 31-C ) :   0.9543 B( 31-C , 32-H ) :   0.9731
B( 31-C , 33-H ) :   0.9731 B( 31-C , 36-H ) :   0.9673 B( 34-C , 37-C ) :   1.0145
B( 37-C , 38-C ) :   1.3848 B( 37-C , 42-C ) :   1.3806 B( 38-C , 39-C ) :   1.4785
B( 38-C , 40-C ) :   0.1011 B( 38-C , 45-H ) :   0.9828 B( 39-C , 40-C ) :   1.4506
B( 39-C , 47-H ) :   0.9766 B( 40-C , 41-C ) :   1.4531 B( 40-C , 42-C ) :   0.1024
B( 40-C , 43-H ) :   0.9662 B( 41-C , 42-C ) :   1.4784 B( 41-C , 44-H ) :   0.9775
B( 42-C , 46-H ) :   0.9806

FINAL SINGLE POINT ENERGY      -890.772290401883

DIPOLE MOMENT
-------------
                                X             Y             Z
Electronic contribution:     11.14675      -0.25704      -0.00081
Nuclear contribution   :    -10.65062       0.21075       0.00090
                        -----------------------------------------
Total Dipole Moment    :      0.49613      -0.04629       0.00009
                        -----------------------------------------
Magnitude (a.u.)       :      0.49829
Magnitude (Debye)      :      1.26655

VIBRATIONAL FREQUENCIES
-----------------------

Scaling factor for frequencies =  1.000000000  (already applied!)

   0:         0.00 cm**-1
   1:         0.00 cm**-1
   2:         0.00 cm**-1
   3:         0.00 cm**-1
   4:         0.00 cm**-1
   5:         0.00 cm**-1
   6:       -28.12 cm**-1 ***imaginary mode***
   7:         9.91 cm**-1
   8:        29.53 cm**-1
   9:        34.69 cm**-1
  10:        59.00 cm**-1
  11:        65.56 cm**-1
  12:        85.81 cm**-1
  13:        94.98 cm**-1
  14:       127.47 cm**-1
  15:       132.37 cm**-1
  16:       147.51 cm**-1
  17:       157.24 cm**-1
  18:       161.73 cm**-1
  19:       173.52 cm**-1
  20:       199.48 cm**-1
  21:       216.00 cm**-1
  22:       227.33 cm**-1
  23:       258.81 cm**-1
  24:       273.34 cm**-1
  25:       276.88 cm**-1
  26:       314.92 cm**-1
  27:       332.42 cm**-1
  28:       332.80 cm**-1
  29:       349.00 cm**-1
  30:       408.38 cm**-1
  31:       412.12 cm**-1
  32:       426.07 cm**-1
  33:       443.79 cm**-1
  34:       460.47 cm**-1
  35:       469.27 cm**-1
  36:       513.86 cm**-1
  37:       519.44 cm**-1
  38:       550.88 cm**-1
  39:       567.98 cm**-1
  40:       616.90 cm**-1
  41:       620.01 cm**-1
  42:       630.83 cm**-1
  43:       662.01 cm**-1
  44:       706.14 cm**-1
  45:       709.63 cm**-1
  46:       753.12 cm**-1
  47:       770.20 cm**-1
  48:       772.49 cm**-1
  49:       796.56 cm**-1
  50:       800.70 cm**-1
  51:       816.81 cm**-1
  52:       820.14 cm**-1
  53:       885.31 cm**-1
  54:       893.77 cm**-1
  55:       910.79 cm**-1
  56:       927.66 cm**-1
  57:       929.51 cm**-1
  58:       930.18 cm**-1
  59:       959.01 cm**-1
  60:       969.90 cm**-1
  61:       974.87 cm**-1
  62:      1007.35 cm**-1
  63:      1015.26 cm**-1
  64:      1029.49 cm**-1
  65:      1032.82 cm**-1
  66:      1039.65 cm**-1
  67:      1055.08 cm**-1
  68:      1080.36 cm**-1
  69:      1081.31 cm**-1
  70:      1106.76 cm**-1
  71:      1111.48 cm**-1
  72:      1121.79 cm**-1
  73:      1129.54 cm**-1
  74:      1134.77 cm**-1
  75:      1139.33 cm**-1
  76:      1169.57 cm**-1
  77:      1191.57 cm**-1
  78:      1193.43 cm**-1
  79:      1194.77 cm**-1
  80:      1208.10 cm**-1
  81:      1251.16 cm**-1
  82:      1253.46 cm**-1
  83:      1285.67 cm**-1
  84:      1291.07 cm**-1
  85:      1295.81 cm**-1
  86:      1314.42 cm**-1
  87:      1323.54 cm**-1
  88:      1326.43 cm**-1
  89:      1333.33 cm**-1
  90:      1336.18 cm**-1
  91:      1342.73 cm**-1
  92:      1343.11 cm**-1
  93:      1378.59 cm**-1
  94:      1379.10 cm**-1
  95:      1389.25 cm**-1
  96:      1419.08 cm**-1
  97:      1421.42 cm**-1
  98:      1430.41 cm**-1
  99:      1430.71 cm**-1
 100:      1433.27 cm**-1
 101:      1477.94 cm**-1
 102:      1478.54 cm**-1
 103:      1482.34 cm**-1
 104:      1494.45 cm**-1
 105:      1498.64 cm**-1
 106:      1499.15 cm**-1
 107:      1509.92 cm**-1
 108:      1510.78 cm**-1
 109:      1511.66 cm**-1
 110:      1511.81 cm**-1
 111:      1522.59 cm**-1
 112:      1524.44 cm**-1
 113:      1525.28 cm**-1
 114:      1536.10 cm**-1
 115:      1610.65 cm**-1
 116:      1621.99 cm**-1
 117:      1658.50 cm**-1
 118:      2269.75 cm**-1
 119:      2937.76 cm**-1
 120:      2939.92 cm**-1
 121:      2940.79 cm**-1
 122:      2944.16 cm**-1
 123:      2949.73 cm**-1
 124:      2952.61 cm**-1
 125:      2954.28 cm**-1
 126:      2956.10 cm**-1
 127:      2956.18 cm**-1
 128:      2960.14 cm**-1
 129:      2965.16 cm**-1
 130:      2969.25 cm**-1
 131:      2991.38 cm**-1
 132:      2993.03 cm**-1
 133:      3017.58 cm**-1
 134:      3017.65 cm**-1
 135:      3025.22 cm**-1
 136:      3025.58 cm**-1
 137:      3111.55 cm**-1
 138:      3119.68 cm**-1
 139:      3132.58 cm**-1
 140:      3139.92 cm**-1
 141:      3143.83 cm**-1
 142:      3145.78 cm**-1
 143:      3156.67 cm**-1

IR SPECTRUM
-----------

 Mode   freq       eps      Int      T**2         TX        TY        TZ
       cm**-1   L/(mol*cm) km/mol    a.u.
----------------------------------------------------------------------------
  7:      9.91   0.000013    0.06  0.000396  ( 0.000721 -0.019898 -0.000058)
  8:     29.53   0.000002    0.01  0.000022  (-0.000120 -0.000166 -0.004715)
  9:     34.69   0.000061    0.31  0.000549  ( 0.000308 -0.000151 -0.023436)
 10:     59.00   0.000012    0.06  0.000061  ( 0.007471 -0.002253  0.000032)
 11:     65.56   0.000001    0.01  0.000007  (-0.000054  0.000166 -0.002602)
 12:     85.81   0.000041    0.21  0.000150  (-0.001710  0.012127  0.000041)
 13:     94.98   0.000198    1.00  0.000650  ( 0.000016 -0.000014  0.025494)
 14:    127.47   0.000047    0.24  0.000115  (-0.002179  0.010485  0.000004)
 15:    132.37   0.000032    0.16  0.000076  ( 0.000080  0.000045 -0.008726)
 16:    147.51   0.000000    0.00  0.000001  ( 0.000021 -0.000065  0.000931)
 17:    157.24   0.000037    0.19  0.000073  ( 0.000030  0.000043 -0.008538)
 18:    161.73   0.000017    0.08  0.000032  (-0.000019 -0.000004  0.005686)
 19:    173.52   0.000096    0.49  0.000173  (-0.000060 -0.000110  0.013160)
 20:    199.48   0.000021    0.11  0.000033  ( 0.002532 -0.005165  0.000039)
 21:    216.00   0.000061    0.31  0.000088  ( 0.000047 -0.000028 -0.009378)
 22:    227.33   0.000032    0.16  0.000044  ( 0.006642  0.000159 -0.000003)
 23:    258.81   0.000026    0.13  0.000032  (-0.001491  0.005442  0.000011)
 24:    273.34   0.000045    0.23  0.000051  ( 0.000009  0.000159 -0.007160)
 25:    276.88   0.000047    0.24  0.000054  (-0.005534  0.004783  0.000057)
 26:    314.92   0.000102    0.52  0.000101  (-0.001000  0.010004  0.000028)
 27:    332.42   0.000004    0.02  0.000004  (-0.000011 -0.000025  0.001943)
 28:    332.80   0.000002    0.01  0.000002  ( 0.000018  0.000002  0.001290)
 29:    349.00   0.000061    0.31  0.000055  (-0.000098 -0.000077  0.007406)
 30:    408.38   0.000000    0.00  0.000000  (-0.000028 -0.000012  0.000022)
 31:    412.12   0.000029    0.15  0.000022  (-0.003740 -0.002786 -0.000010)
 32:    426.07   0.000155    0.78  0.000113  (-0.000044  0.000075 -0.010652)
 33:    443.79   0.000574    2.90  0.000404  ( 0.006473 -0.019028 -0.000068)
 34:    460.47   0.000046    0.23  0.000031  ( 0.004758 -0.002910  0.000025)
 35:    469.27   0.000772    3.90  0.000513  (-0.000229  0.000188 -0.022657)
 36:    513.86   0.003027   15.30  0.001838  ( 0.042682 -0.004058 -0.000002)
 37:    519.44   0.000756    3.82  0.000454  ( 0.019324  0.008990 -0.000008)
 38:    550.88   0.000565    2.86  0.000320  (-0.000069  0.000159 -0.017896)
 39:    567.98   0.000092    0.46  0.000050  (-0.006696  0.002355  0.000024)
 40:    616.90   0.000394    1.99  0.000199  (-0.000040 -0.000026  0.014114)
 41:    620.01   0.000144    0.73  0.000072  (-0.005083 -0.006814  0.000019)
 42:    630.83   0.000012    0.06  0.000006  ( 0.000753  0.002302  0.000008)
 43:    662.01   0.000306    1.55  0.000144  ( 0.010215 -0.006330 -0.000023)
 44:    706.14   0.000040    0.20  0.000018  (-0.000125  0.000070 -0.004227)
 45:    709.63   0.003335   16.85  0.001467  ( 0.000016 -0.000160  0.038295)
 46:    753.12   0.000032    0.16  0.000013  (-0.002091 -0.002978 -0.000020)
 47:    770.20   0.001065    5.38  0.000432  (-0.000044 -0.000028  0.020776)
 48:    772.49   0.000837    4.23  0.000338  ( 0.000001  0.000062 -0.018393)
 49:    796.56   0.000084    0.42  0.000033  ( 0.004338 -0.003744  0.000117)
 50:    800.70   0.012290   62.11  0.004790  (-0.000100 -0.000265  0.069207)
 51:    816.81   0.000065    0.33  0.000025  (-0.000025  0.000061 -0.004983)
 52:    820.14   0.000257    1.30  0.000098  (-0.000024 -0.000033  0.009897)
 53:    885.31   0.000001    0.01  0.000000  (-0.000012  0.000004 -0.000657)
 54:    893.77   0.000480    2.43  0.000168  (-0.010409 -0.007701 -0.000012)
 55:    910.79   0.000659    3.33  0.000226  (-0.000080  0.000015  0.015030)
 56:    927.66   0.000008    0.04  0.000003  ( 0.000662 -0.001555 -0.000023)
 57:    929.51   0.001897    9.59  0.000637  ( 0.000054 -0.000236  0.025238)
 58:    930.18   0.002348   11.87  0.000788  (-0.014855 -0.023816 -0.000110)
 59:    959.01   0.000713    3.60  0.000232  (-0.000051 -0.000116  0.015230)
 60:    969.90   0.000108    0.55  0.000035  (-0.000038  0.000012  0.005893)
 61:    974.87   0.002135   10.79  0.000683  ( 0.000035 -0.000137  0.026142)
 62:   1007.35   0.000006    0.03  0.000002  ( 0.001344  0.000225 -0.000001)
 63:   1015.26   0.000001    0.01  0.000000  (-0.000020  0.000017 -0.000598)
 64:   1029.49   0.000005    0.02  0.000001  (-0.000015  0.000026  0.001191)
 65:   1032.82   0.000003    0.02  0.000001  ( 0.000118  0.000941  0.000002)
 66:   1039.65   0.000147    0.74  0.000044  (-0.005007  0.004361  0.000004)
 67:   1055.08   0.001293    6.54  0.000382  (-0.019511 -0.001349 -0.000005)
 68:   1080.36   0.000057    0.29  0.000016  (-0.003972 -0.000788 -0.000002)
 69:   1081.31   0.000029    0.14  0.000008  ( 0.000909  0.002722  0.000007)
 70:   1106.76   0.000336    1.70  0.000095  (-0.008432 -0.004848 -0.000021)
 71:   1111.48   0.001185    5.99  0.000333  (-0.001355 -0.018189 -0.000013)
 72:   1121.79   0.000236    1.19  0.000066  (-0.006006 -0.005427 -0.000024)
 73:   1129.54   0.000131    0.66  0.000036  (-0.004880 -0.003508 -0.000016)
 74:   1134.77   0.000008    0.04  0.000002  ( 0.000007 -0.000001  0.001470)
 75:   1139.33   0.000006    0.03  0.000002  (-0.000000  0.000011 -0.001236)
 76:   1169.57   0.001240    6.27  0.000331  (-0.011936 -0.013729 -0.000047)
 77:   1191.57   0.000000    0.00  0.000000  ( 0.000083  0.000245  0.000000)
 78:   1193.43   0.000078    0.40  0.000020  ( 0.004028 -0.002061 -0.000004)
 79:   1194.77   0.003090   15.62  0.000807  (-0.026858  0.009266  0.000001)
 80:   1208.10   0.000138    0.70  0.000036  (-0.005967  0.000171  0.000000)
 81:   1251.16   0.000003    0.02  0.000001  (-0.000008 -0.000011 -0.000876)
 82:   1253.46   0.000000    0.00  0.000000  (-0.000009 -0.000014  0.000256)
 83:   1285.67   0.002107   10.65  0.000511  (-0.017252 -0.014623 -0.000049)
 84:   1291.07   0.000219    1.11  0.000053  ( 0.007259  0.000420  0.000010)
 85:   1295.81   0.000099    0.50  0.000024  ( 0.002864 -0.003944 -0.000006)
 86:   1314.42   0.000231    1.17  0.000055  (-0.000192  0.007397  0.000023)
 87:   1323.54   0.000023    0.12  0.000005  ( 0.000004 -0.000013  0.002342)
 88:   1326.43   0.000025    0.13  0.000006  ( 0.000003 -0.000004  0.002425)
 89:   1333.33   0.000005    0.02  0.000001  ( 0.001000  0.000341  0.000003)
 90:   1336.18   0.000054    0.27  0.000013  (-0.003483  0.000627 -0.000008)
 91:   1342.73   0.000045    0.23  0.000010  (-0.000011  0.000002  0.003237)
 92:   1343.11   0.000121    0.61  0.000028  ( 0.000018  0.000011 -0.005310)
 93:   1378.59   0.000013    0.06  0.000003  ( 0.001203  0.001203  0.000001)
 94:   1379.10   0.000178    0.90  0.000040  (-0.005303  0.003496  0.000005)
 95:   1389.25   0.000755    3.81  0.000170  (-0.013015 -0.000391 -0.000011)
 96:   1419.08   0.001022    5.17  0.000225  ( 0.011539  0.009576  0.000029)
 97:   1421.42   0.000295    1.49  0.000065  (-0.000775  0.008006  0.000016)
 98:   1430.41   0.002811   14.21  0.000613  (-0.015687  0.019164  0.000035)
 99:   1430.71   0.000929    4.70  0.000203  (-0.011423  0.008497  0.000009)
100:   1433.27   0.002013   10.17  0.000438  ( 0.001583 -0.020877 -0.000056)
101:   1477.94   0.001876    9.48  0.000396  ( 0.009103  0.017702  0.000041)
102:   1478.54   0.001064    5.38  0.000225  ( 0.014721  0.002794  0.000027)
103:   1482.34   0.000802    4.05  0.000169  (-0.012689 -0.002783 -0.000020)
104:   1494.45   0.002867   14.49  0.000599  (-0.001817  0.024398  0.000062)
105:   1498.64   0.000394    1.99  0.000082  (-0.001902 -0.008860 -0.000018)
106:   1499.15   0.000060    0.30  0.000013  ( 0.001627 -0.003142 -0.000004)
107:   1509.92   0.000029    0.15  0.000006  ( 0.002408 -0.000385  0.000009)
108:   1510.78   0.000215    1.09  0.000044  (-0.000790 -0.006614 -0.000008)
109:   1511.66   0.001789    9.04  0.000369  ( 0.000029  0.000041 -0.019217)
110:   1511.81   0.001731    8.75  0.000357  (-0.000036 -0.000040  0.018902)
111:   1522.59   0.003008   15.20  0.000616  (-0.006073 -0.024075 -0.000081)
112:   1524.44   0.000136    0.69  0.000028  (-0.005058 -0.001514 -0.000010)
113:   1525.28   0.005237   26.46  0.001071  (-0.032379  0.004794 -0.000010)
114:   1536.10   0.007150   36.14  0.001453  ( 0.035564  0.013706  0.000050)
115:   1610.65   0.001608    8.13  0.000312  (-0.017251 -0.003739 -0.000012)
116:   1621.99   0.000347    1.75  0.000067  (-0.000765 -0.008137 -0.000010)
117:   1658.50   0.005230   26.43  0.000984  (-0.031359  0.000774 -0.000003)
118:   2269.75   0.000170    0.86  0.000023  ( 0.004825  0.000188  0.000002)
119:   2937.76   0.000490    2.48  0.000052  ( 0.007184 -0.000645  0.000004)
120:   2939.92   0.000202    1.02  0.000021  ( 0.003136 -0.003401 -0.000004)
121:   2940.79   0.000190    0.96  0.000020  (-0.003343  0.003002 -0.000001)
122:   2944.16   0.002088   10.55  0.000221  (-0.014878  0.000083 -0.000025)
123:   2949.73   0.010934   55.26  0.001157  ( 0.033630  0.005084  0.000062)
124:   2952.61   0.005751   29.06  0.000608  ( 0.023959  0.005815  0.000041)
125:   2954.28   0.000400    2.02  0.000042  ( 0.000012 -0.000001 -0.006499)
126:   2956.10   0.007094   35.85  0.000749  (-0.017740  0.020837  0.000016)
127:   2956.18   0.009347   47.24  0.000987  (-0.022738  0.021672  0.000032)
128:   2960.14   0.000270    1.37  0.000028  (-0.000034  0.000023 -0.005336)
129:   2965.16   0.000042    0.21  0.000004  ( 0.000007 -0.000000 -0.002103)
130:   2969.25   0.000042    0.21  0.000004  (-0.000020  0.000001  0.002096)
131:   2991.38   0.005973   30.18  0.000623  (-0.000036 -0.000067  0.024962)
132:   2993.03   0.007753   39.18  0.000808  ( 0.000031  0.000078 -0.028431)
133:   3017.58   0.001908    9.64  0.000197  (-0.000023 -0.000032  0.014048)
134:   3017.65   0.025330  128.01  0.002619  ( 0.000064  0.000128 -0.051180)
135:   3025.22   0.008471   42.81  0.000874  ( 0.021170  0.020630  0.000083)
136:   3025.58   0.008860   44.78  0.000914  (-0.022845 -0.019799 -0.000078)
137:   3111.55   0.000992    5.01  0.000099  ( 0.009969 -0.000308  0.000001)
138:   3119.68   0.001531    7.74  0.000153  ( 0.000650  0.012357  0.000015)
139:   3132.58   0.005360   27.09  0.000534  ( 0.023071 -0.001295  0.000003)
140:   3139.92   0.005346   27.02  0.000531  ( 0.000985  0.023030  0.000027)
141:   3143.83   0.001354    6.84  0.000134  (-0.001595  0.011481  0.000025)
142:   3145.78   0.003436   17.37  0.000341  (-0.018428  0.001143 -0.000001)
143:   3156.67   0.001096    5.54  0.000108  ( 0.005012 -0.009124 -0.000023)

--------------------------
THERMOCHEMISTRY AT 298.15K
--------------------------

Temperature         ... 298.15 K
Pressure            ... 1.00 atm
Total Mass          ... 301.45 AMU

Throughout the following assumptions are being made:
  (1) The electronic state is orbitally nondegenerate
      but the spin degeneracy is treated
  (2) There are no thermally accessible electronically excited states
  (3) Hindered rotations indicated by low frequency modes are not
      treated as such but are treated as vibrations and this may
      cause some error
  (4) All equations used are the standard statistical mechanics
      equations for an ideal gas
  (5) All vibrations are strictly harmonic

freq.       9.91  E(vib)   ...       0.58
freq.      29.53  E(vib)   ...       0.55
freq.      34.69  E(vib)   ...       0.54
freq.      59.00  E(vib)   ...       0.51
freq.      65.56  E(vib)   ...       0.50
freq.      85.81  E(vib)   ...       0.48
freq.      94.98  E(vib)   ...       0.47
freq.     127.47  E(vib)   ...       0.43
freq.     132.37  E(vib)   ...       0.42
freq.     147.51  E(vib)   ...       0.41
freq.     157.24  E(vib)   ...       0.40
freq.     161.73  E(vib)   ...       0.39
freq.     173.52  E(vib)   ...       0.38
freq.     199.48  E(vib)   ...       0.35
freq.     216.00  E(vib)   ...       0.34
freq.     227.33  E(vib)   ...       0.33
freq.     258.81  E(vib)   ...       0.30
freq.     273.34  E(vib)   ...       0.29
freq.     276.88  E(vib)   ...       0.28
freq.     314.92  E(vib)   ...       0.25
freq.     332.42  E(vib)   ...       0.24
freq.     332.80  E(vib)   ...       0.24
freq.     349.00  E(vib)   ...       0.23
freq.     408.38  E(vib)   ...       0.19
freq.     412.12  E(vib)   ...       0.19
freq.     426.07  E(vib)   ...       0.18
freq.     443.79  E(vib)   ...       0.17
freq.     460.47  E(vib)   ...       0.16
freq.     469.27  E(vib)   ...       0.16
freq.     513.86  E(vib)   ...       0.13
freq.     519.44  E(vib)   ...       0.13
freq.     550.88  E(vib)   ...       0.12
freq.     567.98  E(vib)   ...       0.11
freq.     616.90  E(vib)   ...       0.09
freq.     620.01  E(vib)   ...       0.09
freq.     630.83  E(vib)   ...       0.09
freq.     662.01  E(vib)   ...       0.08
freq.     706.14  E(vib)   ...       0.07
freq.     709.63  E(vib)   ...       0.07
freq.     753.12  E(vib)   ...       0.06
freq.     770.20  E(vib)   ...       0.05
freq.     772.49  E(vib)   ...       0.05
freq.     796.56  E(vib)   ...       0.05
freq.     800.70  E(vib)   ...       0.05
freq.     816.81  E(vib)   ...       0.05
freq.     820.14  E(vib)   ...       0.05
freq.     885.31  E(vib)   ...       0.04
freq.     893.77  E(vib)   ...       0.03
freq.     910.79  E(vib)   ...       0.03
freq.     927.66  E(vib)   ...       0.03
freq.     929.51  E(vib)   ...       0.03
freq.     930.18  E(vib)   ...       0.03
freq.     959.01  E(vib)   ...       0.03
freq.     969.90  E(vib)   ...       0.03
freq.     974.87  E(vib)   ...       0.03
freq.    1007.35  E(vib)   ...       0.02
freq.    1015.26  E(vib)   ...       0.02
freq.    1029.49  E(vib)   ...       0.02
freq.    1032.82  E(vib)   ...       0.02
freq.    1039.65  E(vib)   ...       0.02
freq.    1055.08  E(vib)   ...       0.02
freq.    1080.36  E(vib)   ...       0.02
freq.    1081.31  E(vib)   ...       0.02
freq.    1106.76  E(vib)   ...       0.02
freq.    1111.48  E(vib)   ...       0.01
freq.    1121.79  E(vib)   ...       0.01
freq.    1129.54  E(vib)   ...       0.01
freq.    1134.77  E(vib)   ...       0.01
freq.    1139.33  E(vib)   ...       0.01
freq.    1169.57  E(vib)   ...       0.01
freq.    1191.57  E(vib)   ...       0.01
freq.    1193.43  E(vib)   ...       0.01
freq.    1194.77  E(vib)   ...       0.01
freq.    1208.10  E(vib)   ...       0.01
freq.    1251.16  E(vib)   ...       0.01
freq.    1253.46  E(vib)   ...       0.01
freq.    1285.67  E(vib)   ...       0.01
freq.    1291.07  E(vib)   ...       0.01
freq.    1295.81  E(vib)   ...       0.01
freq.    1314.42  E(vib)   ...       0.01
freq.    1323.54  E(vib)   ...       0.01
freq.    1326.43  E(vib)   ...       0.01
freq.    1333.33  E(vib)   ...       0.01
freq.    1336.18  E(vib)   ...       0.01
freq.    1342.73  E(vib)   ...       0.01
freq.    1343.11  E(vib)   ...       0.01
freq.    1378.59  E(vib)   ...       0.01
freq.    1379.10  E(vib)   ...       0.01
freq.    1389.25  E(vib)   ...       0.00
freq.    1419.08  E(vib)   ...       0.00
freq.    1421.42  E(vib)   ...       0.00
freq.    1430.41  E(vib)   ...       0.00
freq.    1430.71  E(vib)   ...       0.00
freq.    1433.27  E(vib)   ...       0.00
freq.    1477.94  E(vib)   ...       0.00
freq.    1478.54  E(vib)   ...       0.00
freq.    1482.34  E(vib)   ...       0.00
freq.    1494.45  E(vib)   ...       0.00
freq.    1498.64  E(vib)   ...       0.00
freq.    1499.15  E(vib)   ...       0.00
freq.    1509.92  E(vib)   ...       0.00
freq.    1510.78  E(vib)   ...       0.00
freq.    1511.66  E(vib)   ...       0.00
freq.    1511.81  E(vib)   ...       0.00
freq.    1522.59  E(vib)   ...       0.00
freq.    1524.44  E(vib)   ...       0.00
freq.    1525.28  E(vib)   ...       0.00
freq.    1536.10  E(vib)   ...       0.00
freq.    1610.65  E(vib)   ...       0.00
freq.    1621.99  E(vib)   ...       0.00
freq.    1658.50  E(vib)   ...       0.00
freq.    2269.75  E(vib)   ...       0.00
freq.    2937.76  E(vib)   ...       0.00
freq.    2939.92  E(vib)   ...       0.00
freq.    2940.79  E(vib)   ...       0.00
freq.    2944.16  E(vib)   ...       0.00
freq.    2949.73  E(vib)   ...       0.00
freq.    2952.61  E(vib)   ...       0.00
freq.    2954.28  E(vib)   ...       0.00
freq.    2956.10  E(vib)   ...       0.00
freq.    2956.18  E(vib)   ...       0.00
freq.    2960.14  E(vib)   ...       0.00
freq.    2965.16  E(vib)   ...       0.00
freq.    2969.25  E(vib)   ...       0.00
freq.    2991.38  E(vib)   ...       0.00
freq.    2993.03  E(vib)   ...       0.00
freq.    3017.58  E(vib)   ...       0.00
freq.    3017.65  E(vib)   ...       0.00
freq.    3025.22  E(vib)   ...       0.00
freq.    3025.58  E(vib)   ...       0.00
freq.    3111.55  E(vib)   ...       0.00
freq.    3119.68  E(vib)   ...       0.00
freq.    3132.58  E(vib)   ...       0.00
freq.    3139.92  E(vib)   ...       0.00
freq.    3143.83  E(vib)   ...       0.00
freq.    3145.78  E(vib)   ...       0.00
freq.    3156.67  E(vib)   ...       0.00

------------
INNER ENERGY
------------

The inner energy is: U= E(el) + E(ZPE) + E(vib) + E(rot) + E(trans)

Rotational constants in cm-1:     0.006748     0.004694     0.002780

                             ****ORCA TERMINATED NORMALLY****
TOTAL RUN TIME: 0 days 0 hours 21 minutes 16 seconds 927 msec
