                         Program Version 5.0.4 -  RELEASE  -
|  1> ! B3LYP EPR-II FREQ
|  2> %pal nprocs 16 end
|  3> *XYZFile 0 2 opt.xyz
|  4>
|  5>                          ****END OF INPUT****

CARTESIAN COORDINATES (ANGSTROEM)
---------------------------------
  C     -2.832372    0.020293   -0.012674
  C      2.815948   -0.003360   -0.008875
  C     -1.420433    0.002453   -0.011651
  C     -0.709375   -1.248719   -0.014317
  C      0.676247   -1.190347   -0.013098
  C      1.395990    0.032013   -0.009547
  C      0.690981    1.274503   -0.006793
  C     -0.695552    1.234643   -0.007923
  H      1.255523   -2.114320   -0.015016
  H     -1.274064    2.157630   -0.005970
  C     -1.489895   -2.544872   -0.018304
  H     -2.165019   -2.534890   -0.894888
  H     -2.166965   -2.539083    0.856814
  C     -0.678575   -3.843149   -0.020503
  H     -0.014665   -3.868142   -0.904151
  H     -0.016787   -3.872413    0.864608
  C     -1.565109   -5.094476   -0.024598
  H     -2.232311   -5.070651    0.856894
  H     -2.230018   -5.066520   -0.907703
  C     -0.764607   -6.399272   -0.026630
  H     -0.116223   -6.472896    0.863534
  H     -0.113640   -6.468533   -0.915256
  C      1.471273    2.575323   -0.002841
  H      2.146769    2.566888    0.872422
  H      2.148153    2.571347   -0.877069
  C      0.658643    3.872512   -0.000192
  H     -0.003508    3.902839   -0.885023
  H     -0.005190    3.898229    0.883519
  C      1.545480    5.123771    0.003914
  H      2.210563    5.095343    0.886947
  H      2.212467    5.099765   -0.877811
  C      0.745911    6.429167    0.006343
  H      0.095138    6.498653    0.895068
  H      0.097365    6.503336   -0.883633
  C      4.039703   -0.047094   -0.010051
  H     -1.427402   -7.279815   -0.029757
  H      1.409174    7.309394    0.009496
  C      5.464853   -0.099872   -0.009745
  C      6.139075   -1.341626   -0.011166
  C      7.532527   -1.388475   -0.010865
  C      8.280425   -0.205272   -0.009185
  C      7.623150    1.030678   -0.007808
  C      6.230136    1.087990   -0.008102
  H      9.372096   -0.246369   -0.008970
  H      8.201473    1.957801   -0.006530
  H      5.554032   -2.263250   -0.012463
  H      5.715792    2.050851   -0.007084
  H      8.040096   -2.356142   -0.011943

 Total Charge           Charge          ....    0
 Multiplicity           Mult            ....    2
 Number of Electrons    NEL             ....  163
 Basis Dimension        Dim             ....  566

ORBITAL ENERGIES
----------------
                 SPIN UP ORBITALS
  NO   OCC          E(Eh)            E(eV)
   0   1.0000     -10.248943      -278.8879
   1   1.0000     -10.242447      -278.7112
   2   1.0000     -10.225788      -278.2578
   3   1.0000     -10.225013      -278.2367
   4   1.0000     -10.220518      -278.1144
   5   1.0000     -10.220394      -278.1111
   6   1.0000     -10.220252      -278.1072
   7   1.0000     -10.219550      -278.0881
   8   1.0000     -10.219181      -278.0781
   9   1.0000     -10.217437      -278.0306
  10   1.0000     -10.217312      -278.0272
  11   1.0000     -10.213678      -277.9283
  12   1.0000     -10.208841      -277.7967
  13   1.0000     -10.196039      -277.4483
  14   1.0000     -10.194474      -277.4057
  15   1.0000     -10.192827      -277.3609
  16   1.0000     -10.188909      -277.2543
  17   1.0000     -10.188011      -277.2299
  18   1.0000     -10.187206      -277.2080
  19   1.0000     -10.184130      -277.1243
  20   1.0000     -10.182596      -277.0825
  21   1.0000     -10.176159      -276.9074
  22   1.0000     -10.173808      -276.8434
  23   1.0000      -0.882503       -24.0141
  24   1.0000      -0.877567       -23.8798
  25   1.0000      -0.822792       -22.3893
  26   1.0000      -0.807188       -21.9647
  27   1.0000      -0.795427       -21.6447
  28   1.0000      -0.785891       -21.3852
  29   1.0000      -0.770636       -20.9701
  30   1.0000      -0.765265       -20.8239
  31   1.0000      -0.740461       -20.1490
  32   1.0000      -0.732488       -19.9320
  33   1.0000      -0.703323       -19.1384
  34   1.0000      -0.671588       -18.2748
  35   1.0000      -0.656263       -17.8578
  36   1.0000      -0.633953       -17.2507
  37   1.0000      -0.624107       -16.9828
  38   1.0000      -0.623509       -16.9665
  39   1.0000      -0.598045       -16.2736
  40   1.0000      -0.581674       -15.8282
  41   1.0000      -0.567231       -15.4352
  42   1.0000      -0.557025       -15.1574
  43   1.0000      -0.537477       -14.6255
  44   1.0000      -0.518704       -14.1147
  45   1.0000      -0.494822       -13.4648
  46   1.0000      -0.483314       -13.1517
  47   1.0000      -0.476095       -12.9552
  48   1.0000      -0.471402       -12.8275
  49   1.0000      -0.471186       -12.8216
  50   1.0000      -0.450810       -12.2672
  51   1.0000      -0.440786       -11.9944
  52   1.0000      -0.438862       -11.9420
  53   1.0000      -0.429072       -11.6756
  54   1.0000      -0.428570       -11.6620
  55   1.0000      -0.425407       -11.5759
  56   1.0000      -0.419279       -11.4092
  57   1.0000      -0.413872       -11.2620
  58   1.0000      -0.409598       -11.1457
  59   1.0000      -0.397275       -10.8104
  60   1.0000      -0.382596       -10.4110
  61   1.0000      -0.376748       -10.2518
  62   1.0000      -0.375457       -10.2167
  63   1.0000      -0.368963       -10.0400
  64   1.0000      -0.366380        -9.9697
  65   1.0000      -0.364332        -9.9140
  66   1.0000      -0.360529        -9.8105
  67   1.0000      -0.348443        -9.4816
  68   1.0000      -0.336127        -9.1465
  69   1.0000      -0.332322        -9.0429
  70   1.0000      -0.330852        -9.0029
  71   1.0000      -0.328273        -8.9328
  72   1.0000      -0.326748        -8.8913
  73   1.0000      -0.324033        -8.8174
  74   1.0000      -0.322234        -8.7684
  75   1.0000      -0.289139        -7.8679
  76   1.0000      -0.286705        -7.8016
  77   1.0000      -0.272853        -7.4247
  78   1.0000      -0.256036        -6.9671
  79   1.0000      -0.255564        -6.9542
  80   1.0000      -0.234556        -6.3826
  81   1.0000      -0.172656        -4.6982
  82   0.0000      -0.111941        -3.0461
  83   0.0000      -0.045203        -1.2300
  84   0.0000      -0.027751        -0.7551
  85   0.0000      -0.012175        -0.3313
  86   0.0000       0.006054         0.1647

                 SPIN DOWN ORBITALS
  NO   OCC          E(Eh)            E(eV)
   0   1.0000     -10.249225      -278.8956
   1   1.0000     -10.242405      -278.7100
   2   1.0000     -10.225194      -278.2417
   3   1.0000     -10.224894      -278.2335
   4   1.0000     -10.220444      -278.1124
   5   1.0000     -10.220302      -278.1086
   6   1.0000     -10.220283      -278.1080
   7   1.0000     -10.219603      -278.0895
   8   1.0000     -10.219089      -278.0755
   9   1.0000     -10.217414      -278.0300
  10   1.0000     -10.217290      -278.0266
  11   1.0000     -10.212582      -277.8985
  12   1.0000     -10.208711      -277.7931
  13   1.0000     -10.196002      -277.4473
  14   1.0000     -10.195268      -277.4273
  15   1.0000     -10.188764      -277.2504
  16   1.0000     -10.188011      -277.2299
  17   1.0000     -10.187206      -277.2080
  18   1.0000     -10.184095      -277.1233
  19   1.0000     -10.182593      -277.0825
  20   1.0000     -10.178765      -276.9783
  21   1.0000     -10.176159      -276.9074
  22   1.0000     -10.173808      -276.8434
  23   1.0000      -0.881592       -23.9893
  24   1.0000      -0.877397       -23.8752
  25   1.0000      -0.821326       -22.3494
  26   1.0000      -0.806871       -21.9561
  27   1.0000      -0.795220       -21.6390
  28   1.0000      -0.783544       -21.3213
  29   1.0000      -0.770059       -20.9544
  30   1.0000      -0.765310       -20.8252
  31   1.0000      -0.737747       -20.0751
  32   1.0000      -0.732306       -19.9271
  33   1.0000      -0.702577       -19.1181
  34   1.0000      -0.664002       -18.0684
  35   1.0000      -0.655547       -17.8383
  36   1.0000      -0.631469       -17.1832
  37   1.0000      -0.623872       -16.9764
  38   1.0000      -0.623523       -16.9669
  39   1.0000      -0.596171       -16.2226
  40   1.0000      -0.581122       -15.8131
  41   1.0000      -0.566698       -15.4206
  42   1.0000      -0.554818       -15.0974
  43   1.0000      -0.525027       -14.2867
  44   1.0000      -0.517840       -14.0911
  45   1.0000      -0.494601       -13.4588
  46   1.0000      -0.479671       -13.0525
  47   1.0000      -0.476082       -12.9548
  48   1.0000      -0.471259       -12.8236
  49   1.0000      -0.471123       -12.8199
  50   1.0000      -0.450783       -12.2664
  51   1.0000      -0.439280       -11.9534
  52   1.0000      -0.438846       -11.9416
  53   1.0000      -0.428591       -11.6625
  54   1.0000      -0.428071       -11.6484
  55   1.0000      -0.424966       -11.5639
  56   1.0000      -0.419186       -11.4066
  57   1.0000      -0.413363       -11.2482
  58   1.0000      -0.406497       -11.0613
  59   1.0000      -0.397532       -10.8174
  60   1.0000      -0.382718       -10.4143
  61   1.0000      -0.376295       -10.2395
  62   1.0000      -0.373873       -10.1736
  63   1.0000      -0.368179       -10.0187
  64   1.0000      -0.365893        -9.9565
  65   1.0000      -0.362949        -9.8763
  66   1.0000      -0.360399        -9.8070
  67   1.0000      -0.348627        -9.4866
  68   1.0000      -0.336040        -9.1441
  69   1.0000      -0.331883        -9.0310
  70   1.0000      -0.330604        -8.9962
  71   1.0000      -0.328135        -8.9290
  72   1.0000      -0.326769        -8.8918
  73   1.0000      -0.322946        -8.7878
  74   1.0000      -0.322234        -8.7684
  75   1.0000      -0.288427        -7.8485
  76   1.0000      -0.286637        -7.7998
  77   1.0000      -0.272983        -7.4282
  78   1.0000      -0.255554        -6.9540
  79   1.0000      -0.233400        -6.3511
  80   1.0000      -0.233127        -6.3437
  81   0.0000      -0.104600        -2.8463
  82   0.0000      -0.042310        -1.1513
  83   0.0000      -0.027876        -0.7585
  84   0.0000      -0.018603        -0.5062
  85   0.0000      -0.011814        -0.3215

MULLIKEN ATOMIC CHARGES AND SPIN POPULATIONS
--------------------------------------------
   0 C :   -0.535594    0.994146
   1 C :   -0.364148    0.009209
   2 C :    0.303015   -0.080048
   3 C :    0.345155    0.001178
   4 C :   -0.430806    0.004937
   5 C :    0.556836   -0.017882
   6 C :    0.247952    0.001093
   7 C :   -0.343153    0.064318
   8 H :    0.132313    0.003205
   9 H :    0.147482   -0.000586
  10 C :   -0.356957    0.038413
  11 H :    0.161508   -0.002707
  12 H :    0.161508   -0.002709
  13 C :   -0.261841    0.002461
  14 H :    0.136271    0.000154
  15 H :    0.136310    0.000152
  16 C :   -0.253551    0.000056
  17 H :    0.144014   -0.000009
  18 H :    0.144013   -0.000009
  19 C :   -0.507820   -0.000317
  20 H :    0.156445   -0.000002
  21 H :    0.156428   -0.000002
  22 C :   -0.351966    0.003394
  23 H :    0.149810    0.000163
  24 H :    0.149667    0.000163
  25 C :   -0.261623   -0.000963
  26 H :    0.141132   -0.000012
  27 H :    0.141118   -0.000012
  28 C :   -0.255201    0.000008
  29 H :    0.140542    0.000003
  30 H :    0.140515    0.000003
  31 C :   -0.505663    0.000042
  32 H :    0.158980    0.000002
  33 H :    0.158987    0.000002
  34 C :   -0.283354   -0.013673
  35 H :    0.144441   -0.000010
  36 H :    0.142350   -0.000002
  37 C :    0.588472    0.002436
  38 C :   -0.272348   -0.003291
  39 C :   -0.095059    0.001726
  40 C :   -0.113401   -0.003867
  41 C :   -0.097983    0.001726
  42 C :   -0.266856   -0.003295
  43 H :    0.110351    0.000214
  44 H :    0.108973   -0.000078
  45 H :    0.122071    0.000172
  46 H :    0.121633    0.000173
  47 H :    0.109029   -0.000076
Sum of atomic charges         :   -0.0000000

LOEWDIN ATOMIC CHARGES AND SPIN POPULATIONS
-------------------------------------------
   0 C :   -0.092544    0.903813
   1 C :   -0.025725    0.003606
   2 C :   -0.206555    0.035563
   3 C :   -0.009414    0.022157
   4 C :   -0.014914    0.005027
   5 C :   -0.027530   -0.014012
   6 C :   -0.052586    0.007080
   7 C :    0.027938    0.031119
   8 H :    0.062825    0.001695
   9 H :    0.068698    0.000989
  10 C :   -0.052012    0.011861
  11 H :    0.068773    0.000819
  12 H :    0.068778    0.000821
  13 C :   -0.087092    0.001943
  14 H :    0.045495    0.000209
  15 H :    0.045509    0.000208
  16 C :   -0.094028    0.000148
  17 H :    0.044734    0.000001
  18 H :    0.044732    0.000001
  19 C :   -0.085074    0.000029
  20 H :    0.035866    0.000002
  21 H :    0.035864    0.000002
  22 C :   -0.049408    0.001266
  23 H :    0.060444    0.000147
  24 H :    0.060442    0.000147
  25 C :   -0.082830    0.000121
  26 H :    0.048289   -0.000011
  27 H :    0.048282   -0.000011
  28 C :   -0.096293    0.000039
  29 H :    0.043114    0.000005
  30 H :    0.043110    0.000005
  31 C :   -0.083280    0.000009
  32 H :    0.037213    0.000002
  33 H :    0.037211    0.000002
  34 C :   -0.008728   -0.009756
  35 H :    0.034353   -0.000002
  36 H :    0.034066   -0.000001
  37 C :   -0.076686    0.001244
  38 C :   -0.008739   -0.002690
  39 C :   -0.040974    0.001056
  40 C :   -0.033725   -0.003033
  41 C :   -0.041349    0.001057
  42 C :   -0.009099   -0.002671
  43 H :    0.053740   -0.000014
  44 H :    0.054592    0.000009
  45 H :    0.060058   -0.000004
  46 H :    0.059779   -0.000002
  47 H :    0.054678    0.000009

  Mayer bond orders larger than 0.100000
B(  0-C ,  2-C ) :   0.8898 B(  0-C ,  7-C ) :   0.1769 B(  1-C ,  5-C ) :   0.8294
B(  1-C ,  6-C ) :   0.1096 B(  1-C , 34-C ) :   2.4824 B(  2-C ,  3-C ) :   1.3276
B(  2-C ,  4-C ) :   0.1157 B(  2-C ,  6-C ) :   0.1076 B(  2-C ,  7-C ) :   1.3591
B(  3-C ,  4-C ) :   1.4621 B(  3-C ,  5-C ) :   0.1115 B(  3-C , 10-C ) :   0.9578
B(  4-C ,  5-C ) :   1.4177 B(  4-C ,  8-H ) :   0.9713 B(  5-C ,  6-C ) :   1.3652
B(  5-C ,  7-C ) :   0.1385 B(  5-C , 34-C ) :   0.1177 B(  6-C ,  7-C ) :   1.4772
B(  6-C , 22-C ) :   0.9660 B(  7-C ,  9-H ) :   0.9619 B( 10-C , 11-H ) :   0.9550
B( 10-C , 12-H ) :   0.9550 B( 10-C , 13-C ) :   1.0132 B( 13-C , 14-H ) :   0.9618
B( 13-C , 15-H ) :   0.9618 B( 13-C , 16-C ) :   0.9894 B( 16-C , 17-H ) :   0.9704
B( 16-C , 18-H ) :   0.9705 B( 16-C , 19-C ) :   0.9540 B( 19-C , 20-H ) :   0.9729
B( 19-C , 21-H ) :   0.9729 B( 19-C , 35-H ) :   0.9677 B( 22-C , 23-H ) :   0.9555
B( 22-C , 24-H ) :   0.9556 B( 22-C , 25-C ) :   1.0236 B( 25-C , 26-H ) :   0.9600
B( 25-C , 27-H ) :   0.9601 B( 25-C , 28-C ) :   0.9889 B( 28-C , 29-H ) :   0.9714
B( 28-C , 30-H ) :   0.9714 B( 28-C , 31-C ) :   0.9563 B( 31-C , 32-H ) :   0.9724
B( 31-C , 33-H ) :   0.9724 B( 31-C , 36-H ) :   0.9669 B( 34-C , 37-C ) :   1.0141
B( 37-C , 38-C ) :   1.3849 B( 37-C , 42-C ) :   1.3810 B( 38-C , 39-C ) :   1.4806
B( 38-C , 40-C ) :   0.1010 B( 38-C , 45-H ) :   0.9801 B( 39-C , 40-C ) :   1.4518
B( 39-C , 47-H ) :   0.9738 B( 40-C , 41-C ) :   1.4542 B( 40-C , 42-C ) :   0.1023
B( 40-C , 43-H ) :   0.9635 B( 41-C , 42-C ) :   1.4806 B( 41-C , 44-H ) :   0.9747
B( 42-C , 46-H ) :   0.9781

FINAL SINGLE POINT ENERGY      -890.824204250458

DIPOLE MOMENT
-------------
                                X             Y             Z
Electronic contribution:     13.40849      -0.27965       0.00035
Nuclear contribution   :    -10.65062       0.21075       0.00090
                        -----------------------------------------
Total Dipole Moment    :      2.75787      -0.06890       0.00126
                        -----------------------------------------
Magnitude (a.u.)       :      2.75873
Magnitude (Debye)      :      7.01214

VIBRATIONAL FREQUENCIES
-----------------------

Scaling factor for frequencies =  1.000000000  (already applied!)

   0:         0.00 cm**-1
   1:         0.00 cm**-1
   2:         0.00 cm**-1
   3:         0.00 cm**-1
   4:         0.00 cm**-1
   5:         0.00 cm**-1
   6:       -41.00 cm**-1 ***imaginary mode***
   7:       -31.04 cm**-1 ***imaginary mode***
   8:         9.64 cm**-1
   9:        36.27 cm**-1
  10:        59.14 cm**-1
  11:        68.55 cm**-1
  12:        84.62 cm**-1
  13:        86.61 cm**-1
  14:       128.17 cm**-1
  15:       133.43 cm**-1
  16:       147.92 cm**-1
  17:       155.54 cm**-1
  18:       161.82 cm**-1
  19:       170.53 cm**-1
  20:       191.79 cm**-1
  21:       199.52 cm**-1
  22:       226.72 cm**-1
  23:       262.19 cm**-1
  24:       271.65 cm**-1
  25:       273.36 cm**-1
  26:       312.45 cm**-1
  27:       332.09 cm**-1
  28:       333.57 cm**-1
  29:       354.95 cm**-1
  30:       397.81 cm**-1
  31:       407.67 cm**-1
  32:       412.13 cm**-1
  33:       443.09 cm**-1
  34:       455.42 cm**-1
  35:       500.91 cm**-1
  36:       511.09 cm**-1
  37:       516.85 cm**-1
  38:       562.66 cm**-1
  39:       567.65 cm**-1
  40:       611.82 cm**-1
  41:       629.63 cm**-1
  42:       647.11 cm**-1
  43:       662.20 cm**-1
  44:       709.54 cm**-1
  45:       738.89 cm**-1
  46:       751.74 cm**-1
  47:       770.89 cm**-1
  48:       778.18 cm**-1
  49:       798.34 cm**-1
  50:       805.46 cm**-1
  51:       819.00 cm**-1
  52:       825.32 cm**-1
  53:       888.51 cm**-1
  54:       889.62 cm**-1
  55:       928.25 cm**-1
  56:       930.20 cm**-1
  57:       936.34 cm**-1
  58:       946.14 cm**-1
  59:       968.04 cm**-1
  60:       979.63 cm**-1
  61:       989.14 cm**-1
  62:      1008.44 cm**-1
  63:      1019.88 cm**-1
  64:      1034.01 cm**-1
  65:      1035.79 cm**-1
  66:      1040.95 cm**-1
  67:      1055.72 cm**-1
  68:      1080.97 cm**-1
  69:      1081.44 cm**-1
  70:      1107.90 cm**-1
  71:      1112.35 cm**-1
  72:      1123.53 cm**-1
  73:      1133.73 cm**-1
  74:      1141.09 cm**-1
  75:      1146.61 cm**-1
  76:      1178.46 cm**-1
  77:      1193.83 cm**-1
  78:      1198.52 cm**-1
  79:      1210.59 cm**-1
  80:      1254.53 cm**-1
  81:      1259.81 cm**-1
  82:      1277.27 cm**-1
  83:      1288.39 cm**-1
  84:      1295.57 cm**-1
  85:      1297.85 cm**-1
  86:      1327.36 cm**-1
  87:      1331.40 cm**-1
  88:      1335.48 cm**-1
  89:      1336.96 cm**-1
  90:      1344.79 cm**-1
  91:      1350.97 cm**-1
  92:      1371.24 cm**-1
  93:      1379.69 cm**-1
  94:      1383.59 cm**-1
  95:      1392.49 cm**-1
  96:      1422.29 cm**-1
  97:      1424.59 cm**-1
  98:      1430.50 cm**-1
  99:      1432.21 cm**-1
 100:      1448.47 cm**-1
 101:      1475.53 cm**-1
 102:      1477.99 cm**-1
 103:      1484.34 cm**-1
 104:      1498.38 cm**-1
 105:      1498.79 cm**-1
 106:      1509.20 cm**-1
 107:      1509.72 cm**-1
 108:      1511.79 cm**-1
 109:      1511.87 cm**-1
 110:      1514.87 cm**-1
 111:      1523.89 cm**-1
 112:      1524.55 cm**-1
 113:      1527.75 cm**-1
 114:      1539.74 cm**-1
 115:      1622.59 cm**-1
 116:      1645.49 cm**-1
 117:      1660.07 cm**-1
 118:      2284.74 cm**-1
 119:      2939.25 cm**-1
 120:      2940.08 cm**-1
 121:      2943.75 cm**-1
 122:      2944.70 cm**-1
 123:      2951.80 cm**-1
 124:      2952.04 cm**-1
 125:      2956.00 cm**-1
 126:      2956.51 cm**-1
 127:      2960.26 cm**-1
 128:      2960.54 cm**-1
 129:      2968.41 cm**-1
 130:      2972.53 cm**-1
 131:      2993.21 cm**-1
 132:      2993.40 cm**-1
 133:      3017.33 cm**-1
 134:      3018.21 cm**-1
 135:      3025.69 cm**-1
 136:      3025.74 cm**-1
 137:      3113.87 cm**-1
 138:      3121.74 cm**-1
 139:      3134.47 cm**-1
 140:      3141.45 cm**-1
 141:      3141.91 cm**-1
 142:      3146.98 cm**-1
 143:      3163.31 cm**-1

IR SPECTRUM
-----------

 Mode   freq       eps      Int      T**2         TX        TY        TZ
       cm**-1   L/(mol*cm) km/mol    a.u.
----------------------------------------------------------------------------
  8:      9.64   0.000000    0.00  0.000015  ( 0.001472 -0.003648  0.000035)
  9:     36.27   0.000019    0.09  0.000160  ( 0.000111 -0.000064  0.012664)
 10:     59.14   0.000022    0.11  0.000115  (-0.010652  0.001045 -0.000037)
 11:     68.55   0.000000    0.00  0.000001  ( 0.000013  0.000109 -0.000786)
 12:     84.62   0.001189    6.01  0.004385  ( 0.000085 -0.000010 -0.066216)
 13:     86.61   0.000011    0.05  0.000038  (-0.002365 -0.005699  0.000120)
 14:    128.17   0.000257    1.30  0.000627  (-0.000545 -0.025029 -0.000067)
 15:    133.43   0.000003    0.02  0.000008  (-0.000148  0.000050  0.002763)
 16:    147.92   0.000066    0.33  0.000139  ( 0.000069 -0.000125  0.011781)
 17:    155.54   0.000111    0.56  0.000223  (-0.000227 -0.000039  0.014931)
 18:    161.82   0.000018    0.09  0.000034  ( 0.000061 -0.000057  0.005829)
 19:    170.53   0.000346    1.75  0.000632  (-0.000023  0.000207 -0.025148)
 20:    191.79   0.000421    2.13  0.000686  ( 0.000072  0.000198 -0.026187)
 21:    199.52   0.000120    0.61  0.000187  ( 0.013299 -0.003254  0.000146)
 22:    226.72   0.000082    0.42  0.000113  (-0.000997 -0.010588 -0.000031)
 23:    262.19   0.001378    6.96  0.001640  (-0.004141  0.040282  0.000105)
 24:    271.65   0.000001    0.00  0.000001  (-0.000191  0.000210  0.000855)
 25:    273.36   0.000040    0.20  0.000045  (-0.003632  0.005669 -0.000017)
 26:    312.45   0.000270    1.36  0.000270  (-0.001670  0.016333  0.000030)
 27:    332.09   0.000001    0.01  0.000001  ( 0.000014 -0.000004  0.001169)
 28:    333.57   0.000009    0.05  0.000009  ( 0.000014 -0.000001  0.002962)
 29:    354.95   0.000095    0.48  0.000084  ( 0.000078  0.000035  0.009142)
 30:    397.81   0.001759    8.89  0.001380  (-0.000177 -0.037143 -0.000105)
 31:    407.67   0.000001    0.00  0.000000  ( 0.000003  0.000015 -0.000664)
 32:    412.13   0.000102    0.52  0.000077  ( 0.000090  0.000112 -0.008801)
 33:    443.09   0.000581    2.93  0.000409  (-0.001971  0.020127  0.000048)
 34:    455.42   0.000125    0.63  0.000086  (-0.008759 -0.002963 -0.000005)
 35:    500.91   0.001269    6.42  0.000791  ( 0.000184 -0.000207  0.028121)
 36:    511.09   0.001487    7.51  0.000908  (-0.030033  0.002444 -0.000016)
 37:    516.85   0.000845    4.27  0.000510  (-0.022587 -0.000351  0.000070)
 38:    562.66   0.000335    1.69  0.000186  ( 0.000139 -0.000105  0.013620)
 39:    567.65   0.000063    0.32  0.000035  ( 0.001912  0.005567 -0.000027)
 40:    611.82   0.000110    0.56  0.000056  (-0.006586 -0.003581 -0.000008)
 41:    629.63   0.000021    0.11  0.000010  (-0.002502 -0.002011  0.000009)
 42:    647.11   0.000790    3.99  0.000381  (-0.000024 -0.000053  0.019518)
 43:    662.20   0.000803    4.06  0.000378  (-0.018161  0.006968  0.000036)
 44:    709.54   0.003704   18.72  0.001629  (-0.000037  0.000168 -0.040359)
 45:    738.89   0.000041    0.21  0.000017  ( 0.000034  0.000048 -0.004170)
 46:    751.74   0.000035    0.18  0.000015  ( 0.000337 -0.003800 -0.000007)
 47:    770.89   0.001590    8.04  0.000644  ( 0.000067  0.000067 -0.025373)
 48:    778.18   0.000061    0.31  0.000024  (-0.000017  0.000002 -0.004939)
 49:    798.34   0.000277    1.40  0.000108  (-0.010400 -0.000235 -0.000073)
 50:    805.46   0.011791   59.59  0.004568  ( 0.000109  0.000267 -0.067588)
 51:    819.00   0.000213    1.08  0.000081  ( 0.000014 -0.000023  0.009012)
 52:    825.32   0.000118    0.59  0.000044  ( 0.000017  0.000024 -0.006669)
 53:    888.51   0.000001    0.01  0.000000  ( 0.000020  0.000050  0.000664)
 54:    889.62   0.000307    1.55  0.000108  (-0.001018  0.010326  0.000016)
 55:    928.25   0.000254    1.29  0.000086  ( 0.008322  0.004035  0.000019)
 56:    930.20   0.001506    7.61  0.000505  ( 0.007245  0.021275  0.000055)
 57:    936.34   0.000626    3.16  0.000208  (-0.000004 -0.000028 -0.014439)
 58:    946.14   0.000684    3.46  0.000226  (-0.000016  0.000066 -0.015023)
 59:    968.04   0.000580    2.93  0.000187  ( 0.000054  0.000111 -0.013669)
 60:    979.63   0.001054    5.33  0.000336  ( 0.000027  0.000004  0.018322)
 61:    989.14   0.002556   12.92  0.000806  (-0.000057  0.000102 -0.028395)
 62:   1008.44   0.000327    1.65  0.000101  ( 0.010053 -0.000343 -0.000001)
 63:   1019.88   0.000001    0.01  0.000000  ( 0.000050 -0.000015  0.000607)
 64:   1034.01   0.000091    0.46  0.000028  ( 0.005102  0.001241  0.000004)
 65:   1035.79   0.000001    0.00  0.000000  ( 0.000018 -0.000028 -0.000455)
 66:   1040.95   0.000197    0.99  0.000059  (-0.006173  0.004573  0.000003)
 67:   1055.72   0.000446    2.25  0.000132  ( 0.011276  0.002177 -0.000002)
 68:   1080.97   0.000093    0.47  0.000027  ( 0.005064  0.001116  0.000003)
 69:   1081.44   0.000026    0.13  0.000008  (-0.000074 -0.002756 -0.000006)
 70:   1107.90   0.001095    5.53  0.000308  (-0.015226  0.008753  0.000021)
 71:   1112.35   0.001149    5.80  0.000322  ( 0.000850  0.017930  0.000013)
 72:   1123.53   0.001072    5.42  0.000298  ( 0.013336  0.010952  0.000042)
 73:   1133.73   0.002401   12.14  0.000661  (-0.025403  0.003958  0.000002)
 74:   1141.09   0.000000    0.00  0.000000  ( 0.000006  0.000013 -0.000168)
 75:   1146.61   0.000005    0.03  0.000001  (-0.000059  0.000005 -0.001222)
 76:   1178.46   0.001051    5.31  0.000278  (-0.007296  0.015004  0.000037)
 77:   1193.83   0.000018    0.09  0.000005  ( 0.000618 -0.002108 -0.000002)
 78:   1198.52   0.002924   14.78  0.000761  ( 0.027531 -0.001873  0.000003)
 79:   1210.59   0.000184    0.93  0.000047  ( 0.006803  0.001070  0.000002)
 80:   1254.53   0.000002    0.01  0.000000  (-0.000006 -0.000005  0.000660)
 81:   1259.81   0.000000    0.00  0.000000  ( 0.000000  0.000025 -0.000101)
 82:   1277.27   0.027367  138.30  0.006686  (-0.081551 -0.005992 -0.000061)
 83:   1288.39   0.000620    3.13  0.000150  ( 0.010787  0.005808  0.000016)
 84:   1295.57   0.000150    0.76  0.000036  ( 0.003777  0.004679  0.000016)
 85:   1297.85   0.003657   18.48  0.000879  ( 0.027544  0.010985  0.000041)
 86:   1327.36   0.000014    0.07  0.000003  (-0.000033  0.000028  0.001829)
 87:   1331.40   0.008355   42.22  0.001958  (-0.027221  0.034889  0.000076)
 88:   1335.48   0.000906    4.58  0.000212  ( 0.006888 -0.012815 -0.000029)
 89:   1336.96   0.000071    0.36  0.000017  (-0.000003  0.000030 -0.004067)
 90:   1344.79   0.000098    0.49  0.000023  ( 0.000025  0.000015 -0.004759)
 91:   1350.97   0.000044    0.22  0.000010  (-0.000003 -0.000009  0.003194)
 92:   1371.24   0.046384  234.40  0.010556  (-0.102069  0.011734 -0.000015)
 93:   1379.69   0.000140    0.71  0.000032  ( 0.001036 -0.005528 -0.000006)
 94:   1383.59   0.007698   38.90  0.001736  ( 0.041667  0.000417  0.000021)
 95:   1392.49   0.000770    3.89  0.000173  (-0.009396 -0.009186 -0.000031)
 96:   1422.29   0.002678   13.53  0.000588  (-0.005718  0.023555  0.000052)
 97:   1424.59   0.001642    8.30  0.000360  (-0.014074  0.012714  0.000024)
 98:   1430.50   0.000634    3.21  0.000138  ( 0.010861 -0.004522  0.000002)
 99:   1432.21   0.000521    2.64  0.000114  ( 0.008314 -0.006671 -0.000007)
100:   1448.47   0.032044  161.94  0.006904  ( 0.068433  0.047123  0.000164)
101:   1475.53   0.002013   10.17  0.000426  ( 0.020216 -0.004122  0.000004)
102:   1477.99   0.001180    5.96  0.000249  ( 0.000002  0.015784  0.000023)
103:   1484.34   0.001162    5.87  0.000244  ( 0.013480  0.007908  0.000022)
104:   1498.38   0.000491    2.48  0.000102  ( 0.002494  0.009798  0.000021)
105:   1498.79   0.000670    3.39  0.000139  (-0.005127  0.010639  0.000022)
106:   1509.20   0.002599   13.13  0.000537  (-0.019592  0.012392  0.000028)
107:   1509.72   0.000827    4.18  0.000171  ( 0.012750 -0.002890  0.000002)
108:   1511.79   0.001841    9.30  0.000380  ( 0.000023  0.000049 -0.019494)
109:   1511.87   0.001696    8.57  0.000350  (-0.000027 -0.000054  0.018708)
110:   1514.87   0.015010   75.86  0.003092  ( 0.036952 -0.041553 -0.000101)
111:   1523.89   0.003286   16.60  0.000673  ( 0.024961  0.007058  0.000040)
112:   1524.55   0.003783   19.12  0.000774  (-0.027787 -0.001465 -0.000029)
113:   1527.75   0.000655    3.31  0.000134  (-0.009835 -0.006091 -0.000021)
114:   1539.74   0.005347   27.02  0.001084  (-0.028883 -0.015793 -0.000048)
115:   1622.59   0.000238    1.20  0.000046  ( 0.001091 -0.006676 -0.000008)
116:   1645.49   0.101493  512.90  0.019248  (-0.138476 -0.008494 -0.000075)
117:   1660.07   0.010674   53.94  0.002007  ( 0.044743  0.002146  0.000020)
118:   2284.74   0.049832  251.83  0.006806  ( 0.082500 -0.000369  0.000014)
119:   2939.25   0.000331    1.67  0.000035  ( 0.004153  0.004228  0.000015)
120:   2940.08   0.000486    2.46  0.000052  (-0.005813  0.004218  0.000003)
121:   2943.75   0.001202    6.08  0.000127  (-0.011290 -0.000043 -0.000021)
122:   2944.70   0.002583   13.05  0.000274  (-0.016337 -0.002611 -0.000033)
123:   2951.80   0.004172   21.08  0.000441  (-0.020870 -0.002342 -0.000041)
124:   2952.04   0.008094   40.90  0.000856  (-0.028735 -0.005465 -0.000044)
125:   2956.00   0.007842   39.63  0.000828  ( 0.019608 -0.021058 -0.000018)
126:   2956.51   0.008438   42.64  0.000891  (-0.020773  0.021427  0.000036)
127:   2960.26   0.000475    2.40  0.000050  (-0.000025  0.000031 -0.007078)
128:   2960.54   0.000003    0.01  0.000000  (-0.000027 -0.000001  0.000525)
129:   2968.41   0.000023    0.12  0.000002  (-0.000009 -0.000002  0.001568)
130:   2972.53   0.000305    1.54  0.000032  (-0.000006  0.000012 -0.005661)
131:   2993.21   0.000899    4.54  0.000094  ( 0.000013  0.000023 -0.009679)
132:   2993.40   0.011935   60.31  0.001244  (-0.000042 -0.000087  0.035273)
133:   3017.33   0.013140   66.40  0.001359  ( 0.000049  0.000088 -0.036864)
134:   3018.21   0.013764   69.56  0.001423  (-0.000044 -0.000094  0.037724)
135:   3025.69   0.012054   60.91  0.001243  ( 0.025448  0.024405  0.000098)
136:   3025.74   0.004908   24.80  0.000506  ( 0.017316  0.014366  0.000058)
137:   3113.87   0.000747    3.77  0.000075  ( 0.008652 -0.000022  0.000001)
138:   3121.74   0.001231    6.22  0.000123  ( 0.000653  0.011074  0.000013)
139:   3134.47   0.004054   20.49  0.000404  (-0.020058  0.001118 -0.000003)
140:   3141.45   0.003294   16.65  0.000327  (-0.001712 -0.018009 -0.000019)
141:   3141.91   0.002648   13.38  0.000263  ( 0.004114 -0.015686 -0.000030)
142:   3146.98   0.003386   17.11  0.000336  ( 0.018302 -0.000918  0.000002)
143:   3163.31   0.000586    2.96  0.000058  (-0.001749  0.007398  0.000020)

--------------------------
THERMOCHEMISTRY AT 298.15K
--------------------------

Temperature         ... 298.15 K
Pressure            ... 1.00 atm
Total Mass          ... 301.45 AMU

Throughout the following assumptions are being made:
  (1) The electronic state is orbitally nondegenerate
      but the spin degeneracy is treated
  (2) There are no thermally accessible electronically excited states
  (3) Hindered rotations indicated by low frequency modes are not
      treated as such but are treated as vibrations and this may
      cause some error
  (4) All equations used are the standard statistical mechanics
      equations for an ideal gas
  (5) All vibrations are strictly harmonic

freq.       9.64  E(vib)   ...       0.58
freq.      36.27  E(vib)   ...       0.54
freq.      59.14  E(vib)   ...       0.51
freq.      68.55  E(vib)   ...       0.50
freq.      84.62  E(vib)   ...       0.48
freq.      86.61  E(vib)   ...       0.48
freq.     128.17  E(vib)   ...       0.43
freq.     133.43  E(vib)   ...       0.42
freq.     147.92  E(vib)   ...       0.41
freq.     155.54  E(vib)   ...       0.40
freq.     161.82  E(vib)   ...       0.39
freq.     170.53  E(vib)   ...       0.38
freq.     191.79  E(vib)   ...       0.36
freq.     199.52  E(vib)   ...       0.35
freq.     226.72  E(vib)   ...       0.33
freq.     262.19  E(vib)   ...       0.29
freq.     271.65  E(vib)   ...       0.29
freq.     273.36  E(vib)   ...       0.29
freq.     312.45  E(vib)   ...       0.25
freq.     332.09  E(vib)   ...       0.24
freq.     333.57  E(vib)   ...       0.24
freq.     354.95  E(vib)   ...       0.22
freq.     397.81  E(vib)   ...       0.20
freq.     407.67  E(vib)   ...       0.19
freq.     412.13  E(vib)   ...       0.19
freq.     443.09  E(vib)   ...       0.17
freq.     455.42  E(vib)   ...       0.16
freq.     500.91  E(vib)   ...       0.14
freq.     511.09  E(vib)   ...       0.14
freq.     516.85  E(vib)   ...       0.13
freq.     562.66  E(vib)   ...       0.11
freq.     567.65  E(vib)   ...       0.11
freq.     611.82  E(vib)   ...       0.10
freq.     629.63  E(vib)   ...       0.09
freq.     647.11  E(vib)   ...       0.09
freq.     662.20  E(vib)   ...       0.08
freq.     709.54  E(vib)   ...       0.07
freq.     738.89  E(vib)   ...       0.06
freq.     751.74  E(vib)   ...       0.06
freq.     770.89  E(vib)   ...       0.05
freq.     778.18  E(vib)   ...       0.05
freq.     798.34  E(vib)   ...       0.05
freq.     805.46  E(vib)   ...       0.05
freq.     819.00  E(vib)   ...       0.05
freq.     825.32  E(vib)   ...       0.04
freq.     888.51  E(vib)   ...       0.04
freq.     889.62  E(vib)   ...       0.04
freq.     928.25  E(vib)   ...       0.03
freq.     930.20  E(vib)   ...       0.03
freq.     936.34  E(vib)   ...       0.03
freq.     946.14  E(vib)   ...       0.03
freq.     968.04  E(vib)   ...       0.03
freq.     979.63  E(vib)   ...       0.03
freq.     989.14  E(vib)   ...       0.02
freq.    1008.44  E(vib)   ...       0.02
freq.    1019.88  E(vib)   ...       0.02
freq.    1034.01  E(vib)   ...       0.02
freq.    1035.79  E(vib)   ...       0.02
freq.    1040.95  E(vib)   ...       0.02
freq.    1055.72  E(vib)   ...       0.02
freq.    1080.97  E(vib)   ...       0.02
freq.    1081.44  E(vib)   ...       0.02
freq.    1107.90  E(vib)   ...       0.02
freq.    1112.35  E(vib)   ...       0.01
freq.    1123.53  E(vib)   ...       0.01
freq.    1133.73  E(vib)   ...       0.01
freq.    1141.09  E(vib)   ...       0.01
freq.    1146.61  E(vib)   ...       0.01
freq.    1178.46  E(vib)   ...       0.01
freq.    1193.83  E(vib)   ...       0.01
freq.    1198.52  E(vib)   ...       0.01
freq.    1210.59  E(vib)   ...       0.01
freq.    1254.53  E(vib)   ...       0.01
freq.    1259.81  E(vib)   ...       0.01
freq.    1277.27  E(vib)   ...       0.01
freq.    1288.39  E(vib)   ...       0.01
freq.    1295.57  E(vib)   ...       0.01
freq.    1297.85  E(vib)   ...       0.01
freq.    1327.36  E(vib)   ...       0.01
freq.    1331.40  E(vib)   ...       0.01
freq.    1335.48  E(vib)   ...       0.01
freq.    1336.96  E(vib)   ...       0.01
freq.    1344.79  E(vib)   ...       0.01
freq.    1350.97  E(vib)   ...       0.01
freq.    1371.24  E(vib)   ...       0.01
freq.    1379.69  E(vib)   ...       0.01
freq.    1383.59  E(vib)   ...       0.00
freq.    1392.49  E(vib)   ...       0.00
freq.    1422.29  E(vib)   ...       0.00
freq.    1424.59  E(vib)   ...       0.00
freq.    1430.50  E(vib)   ...       0.00
freq.    1432.21  E(vib)   ...       0.00
freq.    1448.47  E(vib)   ...       0.00
freq.    1475.53  E(vib)   ...       0.00
freq.    1477.99  E(vib)   ...       0.00
freq.    1484.34  E(vib)   ...       0.00
freq.    1498.38  E(vib)   ...       0.00
freq.    1498.79  E(vib)   ...       0.00
freq.    1509.20  E(vib)   ...       0.00
freq.    1509.72  E(vib)   ...       0.00
freq.    1511.79  E(vib)   ...       0.00
freq.    1511.87  E(vib)   ...       0.00
freq.    1514.87  E(vib)   ...       0.00
freq.    1523.89  E(vib)   ...       0.00
freq.    1524.55  E(vib)   ...       0.00
freq.    1527.75  E(vib)   ...       0.00
freq.    1539.74  E(vib)   ...       0.00
freq.    1622.59  E(vib)   ...       0.00
freq.    1645.49  E(vib)   ...       0.00
freq.    1660.07  E(vib)   ...       0.00
freq.    2284.74  E(vib)   ...       0.00
freq.    2939.25  E(vib)   ...       0.00
freq.    2940.08  E(vib)   ...       0.00
freq.    2943.75  E(vib)   ...       0.00
freq.    2944.70  E(vib)   ...       0.00
freq.    2951.80  E(vib)   ...       0.00
freq.    2952.04  E(vib)   ...       0.00
freq.    2956.00  E(vib)   ...       0.00
freq.    2956.51  E(vib)   ...       0.00
freq.    2960.26  E(vib)   ...       0.00
freq.    2960.54  E(vib)   ...       0.00
freq.    2968.41  E(vib)   ...       0.00
freq.    2972.53  E(vib)   ...       0.00
freq.    2993.21  E(vib)   ...       0.00
freq.    2993.40  E(vib)   ...       0.00
freq.    3017.33  E(vib)   ...       0.00
freq.    3018.21  E(vib)   ...       0.00
freq.    3025.69  E(vib)   ...       0.00
freq.    3025.74  E(vib)   ...       0.00
freq.    3113.87  E(vib)   ...       0.00
freq.    3121.74  E(vib)   ...       0.00
freq.    3134.47  E(vib)   ...       0.00
freq.    3141.45  E(vib)   ...       0.00
freq.    3141.91  E(vib)   ...       0.00
freq.    3146.98  E(vib)   ...       0.00
freq.    3163.31  E(vib)   ...       0.00

------------
INNER ENERGY
------------

The inner energy is: U= E(el) + E(ZPE) + E(vib) + E(rot) + E(trans)
    E(el)   - is the total energy from the electronic structure calculation

Rotational constants in cm-1:     0.006748     0.004694     0.002780

                             ****ORCA TERMINATED NORMALLY****
TOTAL RUN TIME: 0 days 0 hours 21 minutes 40 seconds 960 msec
