 Gaussian 09, Revision D.01,
 Gaussian 09:  ES64L-G09RevD.01 24-Apr-2013

 ---------------------------------------
 #P bmk/6-31+g opt(modredun,calcfc) freq
 ---------------------------------------

 ------------------------------
 Gaussian input prepared by ASE
 ------------------------------
 Symbolic Z-matrix:
 Charge =  0 Multiplicity = 2

 SCF Done:  E(UBMK) =  -890.491216281     A.U. after   37 cycles
 SCF Done:  E(UBMK) =  -890.493324254     A.U. after   32 cycles
 SCF Done:  E(UBMK) =  -890.492206726     A.U. after   33 cycles
 SCF Done:  E(UBMK) =  -890.493603073     A.U. after   29 cycles
 SCF Done:  E(UBMK) =  -890.493669476     A.U. after   31 cycles
 SCF Done:  E(UBMK) =  -890.493682135     A.U. after   32 cycles
 SCF Done:  E(UBMK) =  -890.493696766     A.U. after   27 cycles
 SCF Done:  E(UBMK) =  -890.493701346     A.U. after   27 cycles
 SCF Done:  E(UBMK) =  -890.493700785     A.U. after   28 cycles
 SCF Done:  E(UBMK) =  -890.493708256     A.U. after   25 cycles
 SCF Done:  E(UBMK) =  -890.493292773     A.U. after   33 cycles
 SCF Done:  E(UBMK) =  -890.493720841     A.U. after   33 cycles
 SCF Done:  E(UBMK) =  -890.493723143     A.U. after   25 cycles
 SCF Done:  E(UBMK) =  -890.493725993     A.U. after   27 cycles
 SCF Done:  E(UBMK) =  -890.493726854     A.U. after   26 cycles
 SCF Done:  E(UBMK) =  -890.493727339     A.U. after   26 cycles
 SCF Done:  E(UBMK) =  -890.493727347     A.U. after   18 cycles
 Optimization completed.
    -- Stationary point found.
 Normal termination of Gaussian 09 at Fri May 10 18:03:34 2024.

 ----------------------------------------------------------------
 #P Geom=AllCheck Guess=TCheck SCRF=Check GenChk UBMK/6-31+G Freq
 ----------------------------------------------------------------

 Structure from the checkpoint file:  "g09BDE.chk"
 ------------------------------
 Gaussian input prepared by ASE
 ------------------------------
 Charge =  0 Multiplicity = 2

                         Standard orientation:
 ---------------------------------------------------------------------
 Center     Atomic      Atomic             Coordinates (Angstroms)
 Number     Number       Type             X           Y           Z
 ---------------------------------------------------------------------
      1          6           0       -3.689215    2.913418    0.000045
      2          6           0        0.788740   -0.502416    0.000005
      3          6           0       -2.611374    2.056423    0.000034
      4          6           0       -2.785750    0.609088    0.000025
      5          6           0       -1.644637   -0.174798    0.000013
      6          6           0       -0.328389    0.380218    0.000010
      7          6           0       -0.148518    1.807447    0.000016
      8          6           0       -1.272165    2.620191    0.000030
      9          1           0       -1.735325   -1.257917    0.000006
     10          1           0       -1.173232    3.701639    0.000036
     11          6           0       -4.205675    0.055490    0.000031
     12          1           0       -4.737844    0.453783   -0.881578
     13          1           0       -4.737817    0.453724    0.881684
     14          6           0       -4.324930   -1.482514   -0.000017
     15          1           0       -3.817699   -1.895801   -0.886584
     16          1           0       -3.817671   -1.895861    0.886505
     17          6           0       -5.798681   -1.948800   -0.000010
     18          1           0       -6.310060   -1.535958    0.884042
     19          1           0       -6.310089   -1.535889   -0.884013
     20          6           0       -5.924479   -3.487947   -0.000068
     21          1           0       -5.440938   -3.917687    0.889097
     22          1           0       -5.440964   -3.917617   -0.889281
     23          6           0        1.269957    2.369085    0.000008
     24          1           0        1.799772    1.964778    0.878294
     25          1           0        1.799769    1.964757   -0.878270
     26          6           0        1.393885    3.906115   -0.000012
     27          1           0        0.889603    4.323850   -0.886413
     28          1           0        0.889613    4.323873    0.886385
     29          6           0        2.869709    4.365840   -0.000025
     30          1           0        3.378847    3.950333    0.884246
     31          1           0        3.378841    3.950300   -0.884285
     32          6           0        3.003725    5.904340   -0.000055
     33          1           0        2.522136    6.336536    0.888939
     34          1           0        2.522137    6.336501   -0.889066
     35          6           0        1.722557   -1.292370    0.000003
     36          1           0       -6.976778   -3.801896   -0.000065
     37          1           0        4.057566    6.213365   -0.000060
     38          6           0        2.792462   -2.246465    0.000003
     39          6           0        2.504501   -3.634853    0.000001
     40          6           0        3.545572   -4.572156    0.000003
     41          6           0        4.885572   -4.144582    0.000006
     42          6           0        5.179684   -2.769026    0.000008
     43          6           0        4.145000   -1.823688    0.000006
     44          1           0        5.692099   -4.874776    0.000008
     45          1           0        6.214608   -2.433351    0.000011
     46          1           0        1.466892   -3.960621   -0.000002
     47          1           0        4.368760   -0.759373    0.000008
     48          1           0        3.312460   -5.634930    0.000001
 ---------------------------------------------------------------------

 SCF Done:  E(UBMK) =  -890.493727347     A.U. after    2 cycles

 The electronic state is 2-A.
 Alpha  occ. eigenvalues --  -10.56195 -10.52539 -10.52416 -10.52032 -10.51069
 Alpha  occ. eigenvalues --  -10.50992 -10.50234 -10.50048 -10.50030 -10.50014
 Alpha  occ. eigenvalues --  -10.49855 -10.49805 -10.49710 -10.49689 -10.49592
 Alpha  occ. eigenvalues --  -10.48806 -10.48288 -10.47764 -10.47538 -10.47492
 Alpha  occ. eigenvalues --  -10.47411 -10.46434 -10.46343  -0.96295  -0.94653
 Alpha  occ. eigenvalues --   -0.90310  -0.88075  -0.87510  -0.85733  -0.84608
 Alpha  occ. eigenvalues --   -0.82814  -0.81406  -0.80246  -0.77670  -0.74801
 Alpha  occ. eigenvalues --   -0.72617  -0.69757  -0.68457  -0.67790  -0.66629
 Alpha  occ. eigenvalues --   -0.65026  -0.63384  -0.61254  -0.59653  -0.57222
 Alpha  occ. eigenvalues --   -0.54172  -0.53759  -0.53597  -0.53265  -0.51308
 Alpha  occ. eigenvalues --   -0.49779  -0.49378  -0.48555  -0.48194  -0.47913
 Alpha  occ. eigenvalues --   -0.47749  -0.47655  -0.46594  -0.46021  -0.44283
 Alpha  occ. eigenvalues --   -0.43391  -0.42193  -0.41865  -0.41436  -0.41298
 Alpha  occ. eigenvalues --   -0.40969  -0.40029  -0.39684  -0.38274  -0.37937
 Alpha  occ. eigenvalues --   -0.37706  -0.37273  -0.37126  -0.36989  -0.36359
 Alpha  occ. eigenvalues --   -0.33960  -0.33692  -0.31675  -0.30037  -0.29940
 Alpha  occ. eigenvalues --   -0.27479  -0.20514
 Alpha virt. eigenvalues --   -0.08279  -0.02217   0.00710   0.01250   0.03510
 Alpha virt. eigenvalues --    0.03611   0.04632   0.05019   0.05302   0.05484
 Alpha virt. eigenvalues --    0.06057   0.06422   0.06659   0.07268   0.07639

  Beta  occ. eigenvalues --  -10.55109 -10.52507 -10.51904 -10.51525 -10.51345
  Beta  occ. eigenvalues --  -10.50615 -10.50510 -10.50146 -10.49943 -10.49928
  Beta  occ. eigenvalues --  -10.49926 -10.49777 -10.49751 -10.49676 -10.49593
  Beta  occ. eigenvalues --  -10.48846 -10.48272 -10.47762 -10.47538 -10.47493
  Beta  occ. eigenvalues --  -10.47411 -10.46435 -10.46343  -0.96005  -0.94596
  Beta  occ. eigenvalues --   -0.90104  -0.87813  -0.87487  -0.85518  -0.84478
  Beta  occ. eigenvalues --   -0.82764  -0.81294  -0.80171  -0.77544  -0.73846
  Beta  occ. eigenvalues --   -0.72569  -0.69666  -0.68323  -0.67754  -0.66493
  Beta  occ. eigenvalues --   -0.65011  -0.63322  -0.60943  -0.59408  -0.57008
  Beta  occ. eigenvalues --   -0.54049  -0.53633  -0.53492  -0.53277  -0.51264
  Beta  occ. eigenvalues --   -0.49680  -0.49328  -0.48258  -0.48175  -0.47865
  Beta  occ. eigenvalues --   -0.47710  -0.47599  -0.46570  -0.45807  -0.43863
  Beta  occ. eigenvalues --   -0.42927  -0.42117  -0.41767  -0.41366  -0.41118
  Beta  occ. eigenvalues --   -0.40888  -0.40001  -0.39443  -0.37908  -0.37665
  Beta  occ. eigenvalues --   -0.37576  -0.37218  -0.36961  -0.36716  -0.36329
  Beta  occ. eigenvalues --   -0.32681  -0.32117  -0.31595  -0.29859  -0.28930
  Beta  occ. eigenvalues --   -0.26096
  Beta virt. eigenvalues --   -0.08415  -0.07009  -0.01076   0.00853   0.01968
  Beta virt. eigenvalues --    0.03620   0.04633   0.05029   0.05123   0.05316
  Beta virt. eigenvalues --    0.05491   0.06077   0.06445   0.06680   0.07287

 Mulliken charges and spin densities:
               1          2
     1  C   -0.674841   0.579587
     2  C   -0.639096  -0.141086
     3  C    0.171699  -0.077897
     4  C    0.604770   0.274362
     5  C   -0.186560  -0.171927
     6  C    0.273907   0.351806
     7  C    0.335035  -0.211429
     8  C    0.194303   0.307962
     9  H    0.207218   0.005329
    10  H    0.203620  -0.012241
    11  C   -0.943381  -0.139155
    12  H    0.218659   0.012210
    13  H    0.218660   0.012211
    14  C   -0.250128   0.005324
    15  H    0.192399  -0.000209
    16  H    0.192397  -0.000209
    17  C   -0.207401  -0.004879
    18  H    0.185895   0.000006
    19  H    0.185895   0.000006
    20  C   -0.715135   0.000358
    21  H    0.188396   0.000021
    22  H    0.188397   0.000021
    23  C   -0.257333   0.017206
    24  H    0.217597  -0.005485
    25  H    0.217597  -0.005485
    26  C   -0.849766  -0.011011
    27  H    0.190974   0.000007
    28  H    0.190973   0.000007
    29  C   -0.116304  -0.001299
    30  H    0.185176   0.000056
    31  H    0.185175   0.000056
    32  C   -0.767968   0.000097
    33  H    0.189269  -0.000009
    34  H    0.189269  -0.000009
    35  C   -0.550946   0.162408
    36  H    0.188373   0.000000
    37  H    0.187066  -0.000007
    38  C    0.440020  -0.052466
    39  C   -0.191572   0.061592
    40  C   -0.031460  -0.034225
    41  C   -0.137956   0.062335
    42  C   -0.042427  -0.033744
    43  C   -0.363927   0.054311
    44  H    0.189816  -0.002344
    45  H    0.190460   0.001006
    46  H    0.206230  -0.002082
    47  H    0.206055  -0.002097
    48  H    0.190904   0.001010
 Sum of Mulliken charges =   0.00000   1.00000

 Dipole moment (field-independent basis, Debye):
    X=              2.3106    Y=             -2.1752    Z=              0.0000  Tot=              3.1734
 Quadrupole moment (field-independent basis, Debye-Ang):
   XX=           -133.8769   YY=           -134.4898   ZZ=           -147.5959
   XY=             11.7126   XZ=              0.0001   YZ=             -0.0001

  Exact polarizability: 409.755 -86.421 349.442  -0.001   0.001 155.955
 Approx polarizability: 473.407-121.669 410.598  -0.001   0.001 196.780

                      1                      2                      3
                      A                      A                      A
 Frequencies --     19.2288                19.9167                34.2571
 Red. masses --      3.8471                 4.5768                 3.5848
 Frc consts  --      0.0008                 0.0011                 0.0025
 IR Inten    --      0.1350                 0.0310                 0.0066

                      4                      5                      6
                      A                      A                      A
 Frequencies --     41.5994                49.1128                58.8487
 Red. masses --      4.9297                 3.0474                 3.7436
 Frc consts  --      0.0050                 0.0043                 0.0076
 IR Inten    --      0.1133                 0.5935                 0.0867

                      7                      8                      9
                      A                      A                      A
 Frequencies --     73.2378                89.6011                93.9927
 Red. masses --      1.7733                 1.7117                 4.4637
 Frc consts  --      0.0056                 0.0081                 0.0232
 IR Inten    --      1.0818                 0.0167                 0.0592

                     10                     11                     12
                      A                      A                      A
 Frequencies --    101.1201               123.5030               136.5286
 Red. masses --      3.6608                 2.0463                 2.0990
 Frc consts  --      0.0221                 0.0184                 0.0231
 IR Inten    --      4.0727                 0.0547                 0.1802

                     13                     14                     15
                      A                      A                      A
 Frequencies --    138.4080               160.5425               198.7924
 Red. masses --      4.2234                 2.6514                 3.6622
 Frc consts  --      0.0477                 0.0403                 0.0853
 IR Inten    --      0.8132                 0.6473                 0.5248

                     16                     17                     18
                      A                      A                      A
 Frequencies --    199.0367               224.5409               235.8388
 Red. masses --      4.1011                 6.3396                 1.1956
 Frc consts  --      0.0957                 0.1883                 0.0392
 IR Inten    --      0.1162                 5.2107                 0.0540

                     19                     20                     21
                      A                      A                      A
 Frequencies --    239.3911               241.4851               274.0436
 Red. masses --      1.1907                 4.3369                 5.0273
 Frc consts  --      0.0402                 0.1490                 0.2224
 IR Inten    --      0.0026                 2.1904                 0.4445

                     22                     23                     24
                      A                      A                      A
 Frequencies --    286.0749               321.9385               358.4056
 Red. masses --      3.7419                 4.8533                 4.9027
 Frc consts  --      0.1804                 0.2964                 0.3711
 IR Inten    --      0.0399                 2.5795                 0.0049

                     25                     26                     27
                      A                      A                      A
 Frequencies --    375.1169               425.6328               426.0749
 Red. masses --      4.4372                 2.8708                 3.1890
 Frc consts  --      0.3679                 0.3064                 0.3411
 IR Inten    --      2.3548                 0.1253                 1.5946

                     28                     29                     30
                      A                      A                      A
 Frequencies --    454.7425               460.3375               486.8206
 Red. masses --      3.5219                 3.4153                 4.2320
 Frc consts  --      0.4291                 0.4264                 0.5909
 IR Inten    --      4.4190                 0.1344                 7.4470

                     31                     32                     33
                      A                      A                      A
 Frequencies --    513.5377               523.1804               580.5574
 Red. masses --      8.3489                 5.7285                 6.2357
 Frc consts  --      1.2973                 0.9238                 1.2383
 IR Inten    --     12.3940                 1.7473                 0.2205

                     34                     35                     36
                      A                      A                      A
 Frequencies --    583.5994               634.8843               643.2716
 Red. masses --      4.3158                 6.1780                 4.3328
 Frc consts  --      0.8660                 1.4672                 1.0563
 IR Inten    --      0.1931                 0.0426                 8.0058

                     37                     38                     39
                      A                      A                      A
 Frequencies --    650.8010               660.3343               705.2596
 Red. masses --      6.6054                 6.4894                 3.6045
 Frc consts  --      1.6483                 1.6672                 1.0563
 IR Inten    --      0.1494                 2.0031                 0.4937

                     40                     41                     42
                      A                      A                      A
 Frequencies --    730.6244               758.4421               763.9549
 Red. masses --      1.6656                 5.9324                 1.0936
 Frc consts  --      0.5239                 2.0106                 0.3761
 IR Inten    --     53.6049                 0.2298                 4.5701

                     43                     44                     45
                      A                      A                      A
 Frequencies --    766.0239               802.7045               818.3646
 Red. masses --      1.1306                 6.0479                 1.5207
 Frc consts  --      0.3909                 2.2960                 0.6000
 IR Inten    --      2.4749                 0.5788                41.3982

                     46                     47                     48
                      A                      A                      A
 Frequencies --    819.1746               820.7382               888.6616
 Red. masses --      1.2385                 1.5043                 1.3112
 Frc consts  --      0.4897                 0.5970                 0.6101
 IR Inten    --      0.6093                12.6866                12.3790

                     49                     50                     51
                      A                      A                      A
 Frequencies --    895.2081               902.0840               934.2752
 Red. masses --      1.2443                 4.8127                 1.7972
 Frc consts  --      0.5875                 2.3074                 0.9243
 IR Inten    --      0.0001                 0.3602                 2.3840

                     52                     53                     54
                      A                      A                      A
 Frequencies --    937.0795               944.3690               977.3910
 Red. masses --      1.8365                 1.2825                 1.3908
 Frc consts  --      0.9502                 0.6739                 0.7828
 IR Inten    --     12.6657                 5.0675                 7.5129

                     55                     56                     57
                      A                      A                      A
 Frequencies --    978.3681               989.8332              1026.1737
 Red. masses --      1.3103                 1.2750                 5.8674
 Frc consts  --      0.7390                 0.7360                 3.6403
 IR Inten    --      0.0671                11.9548                 0.3843

                     58                     59                     60
                      A                      A                      A
 Frequencies --   1032.4020              1038.7182              1053.1563
 Red. masses --      1.3822                 4.9715                 4.1720
 Frc consts  --      0.8680                 3.1603                 2.7263
 IR Inten    --      0.0024                 0.2755                 1.9039

                     61                     62                     63
                      A                      A                      A
 Frequencies --   1055.0829              1058.0779              1092.5887
 Red. masses --      1.3463                 2.4116                 2.8344
 Frc consts  --      0.8830                 1.5907                 1.9935
 IR Inten    --      0.0386                 6.0217                 0.1350

                     64                     65                     66
                      A                      A                      A
 Frequencies --   1096.1913              1112.3868              1121.9774
 Red. masses --      2.9275                 1.6975                 3.2586
 Frc consts  --      2.0726                 1.2376                 2.4168
 IR Inten    --      0.4649                 6.6647                 1.1849

                     67                     68                     69
                      A                      A                      A
 Frequencies --   1129.9678              1147.5934              1155.1966
 Red. masses --      2.4077                 2.2747                 1.4104
 Frc consts  --      1.8113                 1.7650                 1.1089
 IR Inten    --     10.6515                 2.9253                 0.0040

                     70                     71                     72
                      A                      A                      A
 Frequencies --   1165.7261              1166.6736              1214.7833
 Red. masses --      1.4846                 3.1802                 1.5286
 Frc consts  --      1.1886                 2.5504                 1.3291
 IR Inten    --      0.1371                 4.1664                 0.7156

                     73                     74                     75
                      A                      A                      A
 Frequencies --   1215.6944              1232.6944              1247.2921
 Red. masses --      1.6676                 1.2049                 6.1389
 Frc consts  --      1.4521                 1.0788                 5.6270
 IR Inten    --      1.1025                 0.2081                 0.2229

                     76                     77                     78
                      A                      A                      A
 Frequencies --   1269.5272              1273.8551              1288.2940
 Red. masses --      1.4111                 1.3885                 3.7232
 Frc consts  --      1.3400                 1.3275                 3.6408
 IR Inten    --      0.0178                 0.0008                33.0870

                     79                     80                     81
                      A                      A                      A
 Frequencies --   1313.6031              1317.7064              1323.8598
 Red. masses --      5.9282                 1.5197                 1.5628
 Frc consts  --      6.0270                 1.5547                 1.6138
 IR Inten    --      0.1925                 2.6978                 2.7677

                     82                     83                     84
                      A                      A                      A
 Frequencies --   1335.7389              1343.8026              1347.6441
 Red. masses --      1.1576                 1.1635                 1.0564
 Frc consts  --      1.2169                 1.2379                 1.1304
 IR Inten    --      0.0223                 0.4121                 0.1915

                     85                     86                     87
                      A                      A                      A
 Frequencies --   1348.1140              1356.4051              1379.8023
 Red. masses --      1.0705                 2.4400                 1.3832
 Frc consts  --      1.1463                 2.6449                 1.5515
 IR Inten    --      0.9771                 1.0077                 0.4098

                     88                     89                     90
                      A                      A                      A
 Frequencies --   1392.0502              1402.8407              1410.2653
 Red. masses --      1.6561                 2.0758                 1.8485
 Frc consts  --      1.8908                 2.4068                 2.1661
 IR Inten    --      0.6282                 5.2735                 2.2592

                     91                     92                     93
                      A                      A                      A
 Frequencies --   1416.0103              1424.2804              1454.9933
 Red. masses --      1.6405                 1.7471                 1.2872
 Frc consts  --      1.9380                 2.0881                 1.6056
 IR Inten    --      1.6508                 4.3777                 1.6524

                     94                     95                     96
                      A                      A                      A
 Frequencies --   1455.6611              1459.0710              1474.2519
 Red. masses --      1.2221                 2.1989                 3.0957
 Frc consts  --      1.5258                 2.7581                 3.9642
 IR Inten    --     16.0505                11.0286                 0.3738

                     97                     98                     99
                      A                      A                      A
 Frequencies --   1492.2252              1520.6559              1524.0481
 Red. masses --      2.0000                 1.0883                 1.1007
 Frc consts  --      2.6240                 1.4827                 1.5064
 IR Inten    --      4.9332                 2.2917                 4.1996

                    100                    101                    102
                      A                      A                      A
 Frequencies --   1538.4789              1538.9909              1542.0667
 Red. masses --      1.0802                 1.0750                 1.0580
 Frc consts  --      1.5064                 1.5001                 1.4823
 IR Inten    --      3.9342                 0.7722                 1.7327

                    103                    104                    105
                      A                      A                      A
 Frequencies --   1542.2166              1544.7643              1545.2253
 Red. masses --      1.0642                 1.0449                 1.0449
 Frc consts  --      1.4914                 1.4692                 1.4700
 IR Inten    --      2.7258                12.5969                12.9300

                    106                    107                    108
                      A                      A                      A
 Frequencies --   1546.6903              1553.1718              1553.6438
 Red. masses --      2.1124                 1.1006                 1.0982
 Frc consts  --      2.9774                 1.5642                 1.5618
 IR Inten    --     26.9523                20.5301                 8.9747

                    109                    110                    111
                      A                      A                      A
 Frequencies --   1583.9518              1616.5147              1623.1487
 Red. masses --      1.9434                 4.9007                 2.7453
 Frc consts  --      2.8727                 7.5451                 4.2614
 IR Inten    --     14.7805                 2.2029                 4.1989

                    112                    113                    114
                      A                      A                      A
 Frequencies --   1646.4593              2268.4919              3047.5043
 Red. masses --      5.1781                11.9894                 1.0580
 Frc consts  --      8.2702                36.3514                 5.7893
 IR Inten    --     24.2983                 0.1979                 8.7582

                    115                    116                    117
                      A                      A                      A
 Frequencies --   3059.6622              3063.5385              3065.5329
 Red. masses --      1.0560                 1.0533                 1.0528
 Frc consts  --      5.8245                 5.8246                 5.8290
 IR Inten    --      2.7374                 6.0570                12.9488

                    118                    119                    120
                      A                      A                      A
 Frequencies --   3067.1097              3067.6501              3072.3156
 Red. masses --      1.0409                 1.0378                 1.0584
 Frc consts  --      5.7694                 5.7539                 5.8862
 IR Inten    --     27.1667                26.6864                41.7190

                    121                    122                    123
                      A                      A                      A
 Frequencies --   3072.6210              3073.0338              3088.5125
 Red. masses --      1.0998                 1.0586                 1.0997
 Frc consts  --      6.1176                 5.8900                 6.1803
 IR Inten    --      4.0749                51.6842                 0.4363

                    124                    125                    126
                      A                      A                      A
 Frequencies --   3097.4693              3099.5261              3122.1527
 Red. masses --      1.1018                 1.1023                 1.1047
 Frc consts  --      6.2280                 6.2393                 6.3448
 IR Inten    --      0.0081                 0.0013                21.4705

                    127                    128                    129
                      A                      A                      A
 Frequencies --   3122.4235              3138.0356              3139.3330
 Red. masses --      1.1049                 1.1000                 1.1001
 Frc consts  --      6.3470                 6.3820                 6.3879
 IR Inten    --     32.0303                32.7526                37.9822

                    130                    131                    132
                      A                      A                      A
 Frequencies --   3147.8114              3148.1004              3219.7225
 Red. masses --      1.1018                 1.1019                 1.0871
 Frc consts  --      6.4324                 6.4344                 6.6396
 IR Inten    --     52.1845                71.1656                 7.6286

                    133                    134                    135
                      A                      A                      A
 Frequencies --   3224.2312              3240.7285              3243.6688
 Red. masses --      1.0888                 1.0937                 1.0941
 Frc consts  --      6.6686                 6.7675                 6.7822
 IR Inten    --      3.2337                 5.7066                10.4985

                    136                    137                    138
                      A                      A                      A
 Frequencies --   3257.3666              3262.2612              3268.7852
 Red. masses --      1.0981                 1.0896                 1.0885
 Frc consts  --      6.8647                 6.8321                 6.8525
 IR Inten    --     17.2457                 5.7950                 2.8438

 - Thermochemistry -
 -------------------
 Temperature   298.150 Kelvin.  Pressure   1.00000 Atm.
 Atom     1 has atomic number  6 and mass  12.00000

 Molecular mass:   301.19563 amu.
 Principal axes and moments of inertia in atomic units:
                           1         2         3
     Eigenvalues --  9185.52705********************
           X            0.99172   0.12839   0.00000
           Y           -0.12839   0.99172   0.00000
           Z            0.00000   0.00000   1.00000
 This molecule is an asymmetric top.
 Rotational symmetry number  1.
 Warning -- assumption of classical behavior for rotation
           may cause significant error
 Rotational temperatures (Kelvin)      0.00943     0.00685     0.00398
 Rotational constants (GHZ):           0.19648     0.14271     0.08301
 Zero-point vibrational energy    1090461.3 (Joules/Mol)
                                  260.62650 (Kcal/Mol)
 Warning -- explicit consideration of  34 degrees of freedom as
           vibrations may cause significant error
 Vibrational temperatures:     27.67    28.66    49.29    59.85    70.66
          (Kelvin)             84.67   105.37   128.92   135.23   145.49
                              177.69   196.43   199.14   230.98   286.02
                              286.37   323.06   339.32   344.43   347.44
                              394.29   411.60   463.20   515.67   539.71
                              612.39   613.03   654.27   662.32   700.43
                              738.87   752.74   835.29   839.67   913.46
                              925.52   936.36   950.07  1014.71  1051.20
                             1091.23  1099.16  1102.14  1154.91  1177.44
                             1178.61  1180.86  1278.58  1288.00  1297.90
                             1344.21  1348.25  1358.73  1406.25  1407.65
                             1424.15  1476.43  1485.39  1494.48  1515.26
                             1518.03  1522.34  1571.99  1577.17  1600.47
                             1614.27  1625.77  1651.13  1662.07  1677.22
                             1678.58  1747.80  1749.11  1773.57  1794.57
                             1826.56  1832.79  1853.57  1889.98  1895.88
                             1904.74  1921.83  1933.43  1938.96  1939.63
                             1951.56  1985.23  2002.85  2018.37  2029.05
                             2037.32  2049.22  2093.41  2094.37  2099.28
                             2121.12  2146.98  2187.88  2192.76  2213.53
                             2214.26  2218.69  2218.90  2222.57  2223.23
                             2225.34  2234.66  2235.34  2278.95  2325.80
                             2335.35  2368.88  3263.85  4384.67  4402.17
                             4407.74  4410.61  4412.88  4413.66  4420.37
                             4420.81  4421.40  4443.68  4456.56  4459.52
                             4492.08  4492.47  4514.93  4516.79  4528.99
                             4529.41  4632.46  4638.94  4662.68  4666.91
                             4686.62  4693.66  4703.05

 Zero-point correction=                           0.415335 (Hartree/Particle)
 Thermal correction to Energy=                    0.438650
 Thermal correction to Enthalpy=                  0.439595
 Thermal correction to Gibbs Free Energy=         0.358464
 Sum of electronic and zero-point Energies=           -890.078393
 Sum of electronic and thermal Energies=              -890.055077
 Sum of electronic and thermal Enthalpies=            -890.054133
 Sum of electronic and thermal Free Energies=         -890.135264

                     E (Thermal)             CV                S
                      KCal/Mol        Cal/Mol-Kelvin    Cal/Mol-Kelvin
 Total                  275.257             86.202            170.754
 Electronic               0.000              0.000              1.377
 Translational            0.889              2.981             43.005
 Rotational               0.889              2.981             36.178
 Vibrational            273.480             80.241             90.195
 Vibration     1          0.593              1.986              6.712
 Vibration     2          0.593              1.986              6.643
 Vibration     3          0.594              1.983              5.566
 Vibration     4          0.594              1.981              5.181
 Vibration     5          0.595              1.978              4.853
 Vibration     6          0.596              1.974              4.495
 Vibration     7          0.599              1.967              4.064
 Vibration     8          0.602              1.957              3.669
 Vibration     9          0.603              1.953              3.575
 Vibration    10          0.604              1.948              3.433
 Vibration    11          0.610              1.929              3.045
 Vibration    12          0.614              1.917              2.852
 Vibration    13          0.614              1.915              2.826
 Vibration    14          0.622              1.891              2.543
 Vibration    15          0.637              1.842              2.144
 Vibration    16          0.637              1.841              2.142
 Vibration    17          0.649              1.804              1.922
 Vibration    18          0.655              1.786              1.834
 Vibration    19          0.657              1.780              1.807
 Vibration    20          0.658              1.777              1.792
 Vibration    21          0.676              1.721              1.571
 Vibration    22          0.684              1.700              1.497
 Vibration    23          0.707              1.631              1.300
 Vibration    24          0.733              1.558              1.129
 Vibration    25          0.746              1.523              1.059
 Vibration    26          0.787              1.414              0.873
 Vibration    27          0.788              1.414              0.872
 Vibration    28          0.813              1.350              0.782
 Vibration    29          0.818              1.338              0.765
 Vibration    30          0.843              1.279              0.692
 Vibration    31          0.869              1.220              0.625
 Vibration    32          0.878              1.199              0.603
 Vibration    33          0.937              1.073              0.484
 Vibration    34          0.940              1.067              0.479

 Optimization completed.
    -- Stationary point found.
 Normal termination of Gaussian 09 at Fri May 10 19:07:11 2024.
